# vtk DataFile Version 2.0
2D Simulation Python
ASCII
DATASET UNSTRUCTURED_GRID
FIELD FieldData 1
NODES 1 2 int
10482 20142

POINTS 10482 double
0.0 1.0 0.0
1.85 1.0 0.0
2.15 1.0 0.0
2.5312 0.9845 0.0
2.804 0.8597 0.0
3.1897 0.7164 0.0
3.4784 0.635 0.0
3.8514 0.5613 0.0
4.1492 0.5258 0.0
4.5167 0.5049 0.0
4.8167 0.5003 0.0
5.1833 0.5003 0.0
5.4833 0.5049 0.0
5.8508 0.5258 0.0
6.1486 0.5613 0.0
6.5216 0.635 0.0
6.8103 0.7164 0.0
7.196 0.8597 0.0
7.4688 0.9845 0.0
7.85 1.0 0.0
8.15 1.0 0.0
10.0 1.0 0.0
2.0 0.85 0.0
2.604294 0.783787 0.0
3.292593 0.528828 0.0
3.982247 0.392281 0.0
4.6644 0.351597 0.0
5.3356 0.351597 0.0
6.017753 0.392281 0.0
6.707407 0.528828 0.0
7.395706 0.783787 0.0
8.0 0.85 0.0
0.0 0.0 0.0
10.0 0.0 0.0
0.0491691676142 1.0 0.0
0.097554253939 1.0 0.0
0.145167743324 1.0 0.0
0.192021963803 1.0 0.0
0.238129005504 1.0 0.0
0.283500789763 1.0 0.0
0.328149041249 1.0 0.0
0.372085302754 1.0 0.0
0.415320915931 1.0 0.0
0.457867067086 1.0 0.0
0.49973474072 1.0 0.0
0.540934763644 1.0 0.0
0.581477778121 1.0 0.0
0.621374266171 1.0 0.0
0.660634530769 1.0 0.0
0.69926872474 1.0 0.0
0.73728682368 1.0 0.0
0.77469866286 1.0 0.0
0.811513900812 1.0 0.0
0.847742062503 1.0 0.0
0.883392493478 1.0 0.0
0.918474411527 1.0 0.0
0.952996904325 1.0 0.0
0.986968857197 1.0 0.0
1.02039907406 1.0 0.0
1.05329619375 1.0 0.0
1.08566869778 1.0 0.0
1.11752497276 1.0 0.0
1.14887324162 1.0 0.0
1.1797216189 1.0 0.0
1.21007804842 1.0 0.0
1.23995039345 1.0 0.0
1.26934637384 1.0 0.0
1.2982735845 1.0 0.0
1.32673951414 1.0 0.0
1.35475149185 1.0 0.0
1.3823167683 1.0 0.0
1.40944246702 1.0 0.0
1.43613559866 1.0 0.0
1.462403063 1.0 0.0
1.48825164779 1.0 0.0
1.51368802903 1.0 0.0
1.53871878228 1.0 0.0
1.5633503775 1.0 0.0
1.58758918168 1.0 0.0
1.61144144849 1.0 0.0
1.63491335232 1.0 0.0
1.65801095772 1.0 0.0
1.68074022688 1.0 0.0
1.70310704008 1.0 0.0
1.72511717965 1.0 0.0
1.74677632302 1.0 0.0
1.76809007211 1.0 0.0
1.78906393974 1.0 0.0
1.80970333876 1.0 0.0
1.83001360824 1.0 0.0
2.16906 0.999225 0.0
2.18812 0.99845 0.0
2.20718 0.997675 0.0
2.22624 0.9969 0.0
2.2453 0.996125 0.0
2.26436 0.99535 0.0
2.28342 0.994575 0.0
2.30248 0.9938 0.0
2.32154 0.993025 0.0
2.3406 0.99225 0.0
2.35966 0.991475 0.0
2.37872 0.9907 0.0
2.39778 0.989925 0.0
2.41684 0.98915 0.0
2.4359 0.988375 0.0
2.45496 0.9876 0.0
2.47402 0.986825 0.0
2.49308 0.98605 0.0
2.51214 0.985275 0.0
2.82236666667 0.852876190476 0.0
2.84073333333 0.846052380952 0.0
2.8591 0.839228571429 0.0
2.87746666667 0.832404761905 0.0
2.89583333333 0.825580952381 0.0
2.9142 0.818757142857 0.0
2.93256666667 0.811933333333 0.0
2.95093333333 0.80510952381 0.0
2.9693 0.798285714286 0.0
2.98766666667 0.791461904762 0.0
3.00603333333 0.784638095238 0.0
3.0244 0.777814285714 0.0
3.04276666667 0.770990476191 0.0
3.06113333333 0.764166666667 0.0
3.0795 0.757342857143 0.0
3.09786666667 0.750519047619 0.0
3.11623333333 0.743695238095 0.0
3.1346 0.736871428571 0.0
3.15296666667 0.730047619048 0.0
3.17133333333 0.723223809524 0.0
3.49705 0.631315 0.0
3.5157 0.62763 0.0
3.53435 0.623945 0.0
3.553 0.62026 0.0
3.57165 0.616575 0.0
3.5903 0.61289 0.0
3.60895 0.609205 0.0
3.6276 0.60552 0.0
3.64625 0.601835 0.0
3.6649 0.59815 0.0
3.68355 0.594465 0.0
3.7022 0.59078 0.0
3.72085 0.587095 0.0
3.7395 0.58341 0.0
3.75815 0.579725 0.0
3.7768 0.57604 0.0
3.79545 0.572355 0.0
3.8141 0.56867 0.0
3.83275 0.564985 0.0
4.16854210526 0.5247 0.0
4.18788421053 0.5236 0.0
4.20722631579 0.5225 0.0
4.22656842105 0.5214 0.0
4.24591052632 0.5203 0.0
4.26525263158 0.5192 0.0
4.28459473684 0.5181 0.0
4.3039368421 0.517 0.0
4.32327894737 0.5159 0.0
4.34262105263 0.5148 0.0
4.36196315789 0.5137 0.0
4.38130526316 0.5126 0.0
4.40064736842 0.5115 0.0
4.41998947368 0.5104 0.0
4.43933157895 0.5093 0.0
4.45867368421 0.5082 0.0
4.47801578947 0.5071 0.0
4.49735789474 0.506 0.0
4.83599473684 0.5003 0.0
4.85528947368 0.5003 0.0
4.87458421053 0.5003 0.0
4.89387894737 0.5003 0.0
4.91317368421 0.5003 0.0
4.93246842105 0.5003 0.0
4.95176315789 0.5003 0.0
4.97105789474 0.5003 0.0
4.99035263158 0.5003 0.0
5.00964736842 0.5003 0.0
5.02894210526 0.5003 0.0
5.0482368421 0.5003 0.0
5.06753157895 0.5003 0.0
5.08682631579 0.5003 0.0
5.10612105263 0.5003 0.0
5.12541578947 0.5003 0.0
5.14471052632 0.5003 0.0
5.16400526316 0.5003 0.0
5.50264210526 0.506 0.0
5.52198421053 0.5071 0.0
5.54132631579 0.5082 0.0
5.56066842105 0.5093 0.0
5.58001052632 0.5104 0.0
5.59935263158 0.5115 0.0
5.61869473684 0.5126 0.0
5.6380368421 0.5137 0.0
5.65737894737 0.5148 0.0
5.67672105263 0.5159 0.0
5.69606315789 0.517 0.0
5.71540526316 0.5181 0.0
5.73474736842 0.5192 0.0
5.75408947368 0.5203 0.0
5.77343157895 0.5214 0.0
5.79277368421 0.5225 0.0
5.81211578947 0.5236 0.0
5.83145789474 0.5247 0.0
6.16725 0.564985 0.0
6.1859 0.56867 0.0
6.20455 0.572355 0.0
6.2232 0.57604 0.0
6.24185 0.579725 0.0
6.2605 0.58341 0.0
6.27915 0.587095 0.0
6.2978 0.59078 0.0
6.31645 0.594465 0.0
6.3351 0.59815 0.0
6.35375 0.601835 0.0
6.3724 0.60552 0.0
6.39105 0.609205 0.0
6.4097 0.61289 0.0
6.42835 0.616575 0.0
6.447 0.62026 0.0
6.46565 0.623945 0.0
6.4843 0.62763 0.0
6.50295 0.631315 0.0
6.82866666667 0.723223809524 0.0
6.84703333333 0.730047619048 0.0
6.8654 0.736871428571 0.0
6.88376666667 0.743695238095 0.0
6.90213333333 0.750519047619 0.0
6.9205 0.757342857143 0.0
6.93886666667 0.764166666667 0.0
6.95723333333 0.77099047619 0.0
6.9756 0.777814285714 0.0
6.99396666667 0.784638095238 0.0
7.01233333333 0.791461904762 0.0
7.0307 0.798285714286 0.0
7.04906666667 0.80510952381 0.0
7.06743333333 0.811933333333 0.0
7.0858 0.818757142857 0.0
7.10416666667 0.825580952381 0.0
7.12253333333 0.832404761905 0.0
7.1409 0.839228571429 0.0
7.15926666667 0.846052380952 0.0
7.17763333333 0.852876190476 0.0
7.48786 0.985275 0.0
7.50692 0.98605 0.0
7.52598 0.986825 0.0
7.54504 0.9876 0.0
7.5641 0.988375 0.0
7.58316 0.98915 0.0
7.60222 0.989925 0.0
7.62128 0.9907 0.0
7.64034 0.991475 0.0
7.6594 0.99225 0.0
7.67846 0.993025 0.0
7.69752 0.9938 0.0
7.71658 0.994575 0.0
7.73564 0.99535 0.0
7.7547 0.996125 0.0
7.77376 0.9969 0.0
7.79282 0.997675 0.0
7.81188 0.99845 0.0
7.83094 0.999225 0.0
8.16989247312 1.0 0.0
8.18978494624 1.0 0.0
8.20967741936 1.0 0.0
8.22956989247 1.0 0.0
8.24946236559 1.0 0.0
8.26935483871 1.0 0.0
8.28924731183 1.0 0.0
8.30913978495 1.0 0.0
8.32903225806 1.0 0.0
8.34892473118 1.0 0.0
8.3688172043 1.0 0.0
8.38870967742 1.0 0.0
8.40860215054 1.0 0.0
8.42849462366 1.0 0.0
8.44838709677 1.0 0.0
8.46827956989 1.0 0.0
8.48817204301 1.0 0.0
8.50806451613 1.0 0.0
8.52795698925 1.0 0.0
8.54784946237 1.0 0.0
8.56774193548 1.0 0.0
8.5876344086 1.0 0.0
8.60752688172 1.0 0.0
8.62741935484 1.0 0.0
8.64731182796 1.0 0.0
8.66720430108 1.0 0.0
8.68709677419 1.0 0.0
8.70698924731 1.0 0.0
8.72688172043 1.0 0.0
8.74677419355 1.0 0.0
8.76666666667 1.0 0.0
8.78655913979 1.0 0.0
8.8064516129 1.0 0.0
8.82634408602 1.0 0.0
8.84623655914 1.0 0.0
8.86612903226 1.0 0.0
8.88602150538 1.0 0.0
8.90591397849 1.0 0.0
8.92580645161 1.0 0.0
8.94569892473 1.0 0.0
8.96559139785 1.0 0.0
8.98548387097 1.0 0.0
9.00537634409 1.0 0.0
9.0252688172 1.0 0.0
9.04516129032 1.0 0.0
9.06505376344 1.0 0.0
9.08494623656 1.0 0.0
9.10483870968 1.0 0.0
9.1247311828 1.0 0.0
9.14462365591 1.0 0.0
9.16451612903 1.0 0.0
9.18440860215 1.0 0.0
9.20430107527 1.0 0.0
9.22419354839 1.0 0.0
9.24408602151 1.0 0.0
9.26397849462 1.0 0.0
9.28387096774 1.0 0.0
9.30376344086 1.0 0.0
9.32365591398 1.0 0.0
9.3435483871 1.0 0.0
9.36344086022 1.0 0.0
9.38333333333 1.0 0.0
9.40322580645 1.0 0.0
9.42311827957 1.0 0.0
9.44301075269 1.0 0.0
9.46290322581 1.0 0.0
9.48279569893 1.0 0.0
9.50268817204 1.0 0.0
9.52258064516 1.0 0.0
9.54247311828 1.0 0.0
9.5623655914 1.0 0.0
9.58225806452 1.0 0.0
9.60215053764 1.0 0.0
9.62204301075 1.0 0.0
9.64193548387 1.0 0.0
9.66182795699 1.0 0.0
9.68172043011 1.0 0.0
9.70161290323 1.0 0.0
9.72150537634 1.0 0.0
9.74139784946 1.0 0.0
9.76129032258 1.0 0.0
9.7811827957 1.0 0.0
9.80107526882 1.0 0.0
9.82096774194 1.0 0.0
9.84086021505 1.0 0.0
9.86075268817 1.0 0.0
9.88064516129 1.0 0.0
9.90053763441 1.0 0.0
9.92043010753 1.0 0.0
9.94032258065 1.0 0.0
9.96021505376 1.0 0.0
9.98010752688 1.0 0.0
1.85128327079 0.980421071167 0.0
1.85511112606 0.961177143235 0.0
1.86141807012 0.942597485145 0.0
1.87009618943 0.925 0.0
1.88099699896 0.908685785649 0.0
1.89393398282 0.893933982822 0.0
1.90868578565 0.880996998956 0.0
1.925 0.870096189432 0.0
1.94259748515 0.861418070123 0.0
1.96117714323 0.855111126057 0.0
1.98042107117 0.851283270794 0.0
2.52391268068 0.966096856559 0.0
2.51911222352 0.946894348328 0.0
2.51688223589 0.927226916707 0.0
2.5172615565 0.907437100457 0.0
2.52024357888 0.887869569854 0.0
2.5257763665 0.868865123729 0.0
2.5337635573 0.850754753924 0.0
2.54406604199 0.833853880556 0.0
2.55650438686 0.818456858493 0.0
2.57086195887 0.804831850704 0.0
2.58688869869 0.793216157786 0.0
3.18525501842 0.697072231334 0.0
3.18339947112 0.677326916774 0.0
3.18416581323 0.657509418884 0.0
3.18754064075 0.637966362777 0.0
3.19346492506 0.619039573342 0.0
3.2018350453 0.601060096433 0.0
3.21250460088 0.584342408593 0.0
3.22528697206 0.569178916585 0.0
3.23995858416 0.555834842951 0.0
3.25626281805 0.544543587035 0.0
3.27391449862 0.535502642631 0.0
3.85004714702 0.541534487203 0.0
3.85131180845 0.521763135737 0.0
3.85517190889 0.502331066061 0.0
3.86156006805 0.483577476273 0.0
3.87036477687 0.46582972121 0.0
3.88143234405 0.449397598275 0.0
3.89456957874 0.43456793975 0.0
3.90954716286 0.421599605963 0.0
3.92610365396 0.410718966736 0.0
3.94395004883 0.402115949968 0.0
3.96277482825 0.395940726327 0.0
4.51756161412 0.485210007383 0.0
4.52099669577 0.465802833395 0.0
4.52694597066 0.447013359842 0.0
4.53530678068 0.429165809757 0.0
4.54593485529 0.412568152752 0.0
4.55864680105 0.397506790821 0.0
4.57322326611 0.384241616317 0.0
4.58941272528 0.373001527356 0.0
4.60693582026 0.363980478056 0.0
4.62549018009 0.357334131745 0.0
4.64475563877 0.353177174902 0.0
5.18476456874 0.480649685917 0.0
5.18879220311 0.461360881742 0.0
5.19531340393 0.442766427057 0.0
[...]
POINT_DATA 10482
VECTORS vector double
0.0 0.0 0.0
0.0 0.0 0.0
0.0 0.0 0.0
0.0 0.0 0.0
0.0 0.0 0.0
0.0 0.0 0.0
0.0 0.0 0.0
0.0 0.0 0.0
0.0 0.0 0.0
0.0 0.0 0.0
0.0 0.0 0.0
0.0 0.0 0.0
0.0 0.0 0.0
0.0 0.0 0.0
0.0 0.0 0.0
0.0 0.0 0.0
0.0 0.0 0.0
0.0 0.0 0.0
0.0 0.0 0.0
0.0 0.0 0.0
0.0 0.0 0.0
0.0 0.0 0.0
0.0 0.0 0.0
0.0 0.0 0.0
0.0 0.0 0.0
0.0 0.0 0.0
0.0 0.0 0.0
0.0 0.0 0.0
0.0 0.0 0.0
0.0 0.0 0.0
0.0 0.0 0.0
0.0 0.0 0.0
1.5 0.0 0.0
1.11773001073 0.0 0.0
0.0 0.0 0.0
0.0 0.0 0.0
0.0 0.0 0.0
0.0 0.0 0.0
0.0 0.0 0.0
0.0 0.0 0.0
0.0 0.0 0.0
0.0 0.0 0.0
0.0 0.0 0.0
0.0 0.0 0.0
0.0 0.0 0.0
0.0 0.0 0.0
0.0 0.0 0.0
0.0 0.0 0.0
0.0 0.0 0.0
0.0 0.0 0.0
0.0 0.0 0.0
0.0 0.0 0.0
0.0 0.0 0.0
0.0 0.0 0.0
0.0 0.0 0.0
0.0 0.0 0.0
0.0 0.0 0.0
0.0 0.0 0.0
0.0 0.0 0.0
0.0 0.0 0.0
0.0 0.0 0.0
0.0 0.0 0.0
0.0 0.0 0.0
0.0 0.0 0.0
0.0 0.0 0.0
0.0 0.0 0.0
0.0 0.0 0.0
0.0 0.0 0.0
0.0 0.0 0.0
0.0 0.0 0.0
0.0 0.0 0.0
0.0 0.0 0.0
0.0 0.0 0.0
0.0 0.0 0.0
0.0 0.0 0.0
0.0 0.0 0.0
0.0 0.0 0.0
0.0 0.0 0.0
0.0 0.0 0.0
0.0 0.0 0.0
0.0 0.0 0.0
0.0 0.0 0.0
0.0 0.0 0.0
0.0 0.0 0.0
0.0 0.0 0.0
0.0 0.0 0.0
0.0 0.0 0.0
0.0 0.0 0.0
0.0 0.0 0.0
0.0 0.0 0.0
0.0 0.0 0.0
0.0 0.0 0.0
0.0 0.0 0.0
0.0 0.0 0.0
0.0 0.0 0.0
0.0 0.0 0.0
0.0 0.0 0.0
0.0 0.0 0.0
0.0 0.0 0.0
0.0 0.0 0.0
0.0 0.0 0.0
0.0 0.0 0.0
0.0 0.0 0.0
0.0 0.0 0.0
0.0 0.0 0.0
0.0 0.0 0.0
0.0 0.0 0.0
0.0 0.0 0.0
0.0 0.0 0.0
0.0 0.0 0.0
0.0 0.0 0.0
0.0 0.0 0.0
0.0 0.0 0.0
0.0 0.0 0.0
0.0 0.0 0.0
0.0 0.0 0.0
0.0 0.0 0.0
0.0 0.0 0.0
0.0 0.0 0.0
0.0 0.0 0.0
0.0 0.0 0.0
0.0 0.0 0.0
0.0 0.0 0.0
0.0 0.0 0.0
0.0 0.0 0.0
0.0 0.0 0.0
0.0 0.0 0.0
0.0 0.0 0.0
0.0 0.0 0.0
0.0 0.0 0.0
0.0 0.0 0.0
0.0 0.0 0.0
0.0 0.0 0.0
0.0 0.0 0.0
0.0 0.0 0.0
0.0 0.0 0.0
0.0 0.0 0.0
0.0 0.0 0.0
0.0 0.0 0.0
0.0 0.0 0.0
0.0 0.0 0.0
0.0 0.0 0.0
0.0 0.0 0.0
0.0 0.0 0.0
0.0 0.0 0.0
0.0 0.0 0.0
0.0 0.0 0.0
0.0 0.0 0.0
0.0 0.0 0.0
0.0 0.0 0.0
0.0 0.0 0.0
0.0 0.0 0.0
0.0 0.0 0.0
0.0 0.0 0.0
0.0 0.0 0.0
0.0 0.0 0.0
0.0 0.0 0.0
0.0 0.0 0.0
0.0 0.0 0.0
0.0 0.0 0.0
0.0 0.0 0.0
0.0 0.0 0.0
0.0 0.0 0.0
0.0 0.0 0.0
0.0 0.0 0.0
0.0 0.0 0.0
0.0 0.0 0.0
0.0 0.0 0.0
0.0 0.0 0.0
0.0 0.0 0.0
0.0 0.0 0.0
0.0 0.0 0.0
0.0 0.0 0.0
0.0 0.0 0.0
0.0 0.0 0.0
0.0 0.0 0.0
0.0 0.0 0.0
0.0 0.0 0.0
0.0 0.0 0.0
0.0 0.0 0.0
0.0 0.0 0.0
0.0 0.0 0.0
0.0 0.0 0.0
0.0 0.0 0.0
0.0 0.0 0.0
0.0 0.0 0.0
0.0 0.0 0.0
0.0 0.0 0.0
0.0 0.0 0.0
0.0 0.0 0.0
0.0 0.0 0.0
0.0 0.0 0.0
0.0 0.0 0.0
0.0 0.0 0.0
0.0 0.0 0.0
0.0 0.0 0.0
0.0 0.0 0.0
0.0 0.0 0.0
0.0 0.0 0.0
0.0 0.0 0.0
0.0 0.0 0.0
0.0 0.0 0.0
0.0 0.0 0.0
0.0 0.0 0.0
0.0 0.0 0.0
0.0 0.0 0.0
0.0 0.0 0.0
0.0 0.0 0.0
0.0 0.0 0.0
0.0 0.0 0.0
0.0 0.0 0.0
0.0 0.0 0.0
0.0 0.0 0.0
0.0 0.0 0.0
0.0 0.0 0.0
0.0 0.0 0.0
0.0 0.0 0.0
0.0 0.0 0.0
0.0 0.0 0.0
0.0 0.0 0.0
0.0 0.0 0.0
0.0 0.0 0.0
0.0 0.0 0.0
0.0 0.0 0.0
0.0 0.0 0.0
0.0 0.0 0.0
0.0 0.0 0.0
0.0 0.0 0.0
0.0 0.0 0.0
0.0 0.0 0.0
0.0 0.0 0.0
0.0 0.0 0.0
0.0 0.0 0.0
0.0 0.0 0.0
0.0 0.0 0.0
0.0 0.0 0.0
0.0 0.0 0.0
0.0 0.0 0.0
0.0 0.0 0.0
0.0 0.0 0.0
0.0 0.0 0.0
0.0 0.0 0.0
0.0 0.0 0.0
0.0 0.0 0.0
0.0 0.0 0.0
0.0 0.0 0.0
0.0 0.0 0.0
0.0 0.0 0.0
0.0 0.0 0.0
0.0 0.0 0.0
0.0 0.0 0.0
0.0 0.0 0.0
0.0 0.0 0.0
0.0 0.0 0.0
0.0 0.0 0.0
0.0 0.0 0.0
0.0 0.0 0.0
0.0 0.0 0.0
0.0 0.0 0.0
0.0 0.0 0.0
0.0 0.0 0.0
0.0 0.0 0.0
0.0 0.0 0.0
0.0 0.0 0.0
0.0 0.0 0.0
0.0 0.0 0.0
0.0 0.0 0.0
0.0 0.0 0.0
0.0 0.0 0.0
0.0 0.0 0.0
0.0 0.0 0.0
0.0 0.0 0.0
0.0 0.0 0.0
0.0 0.0 0.0
0.0 0.0 0.0
0.0 0.0 0.0
0.0 0.0 0.0
0.0 0.0 0.0
0.0 0.0 0.0
0.0 0.0 0.0
0.0 0.0 0.0
0.0 0.0 0.0
0.0 0.0 0.0
0.0 0.0 0.0
0.0 0.0 0.0
0.0 0.0 0.0
0.0 0.0 0.0
0.0 0.0 0.0
0.0 0.0 0.0
0.0 0.0 0.0
0.0 0.0 0.0
0.0 0.0 0.0
0.0 0.0 0.0
0.0 0.0 0.0
0.0 0.0 0.0
0.0 0.0 0.0
0.0 0.0 0.0
0.0 0.0 0.0
0.0 0.0 0.0
0.0 0.0 0.0
0.0 0.0 0.0
0.0 0.0 0.0
0.0 0.0 0.0
0.0 0.0 0.0
0.0 0.0 0.0
0.0 0.0 0.0
0.0 0.0 0.0
0.0 0.0 0.0
0.0 0.0 0.0
0.0 0.0 0.0
0.0 0.0 0.0
0.0 0.0 0.0
0.0 0.0 0.0
0.0 0.0 0.0
0.0 0.0 0.0
0.0 0.0 0.0
0.0 0.0 0.0
0.0 0.0 0.0
0.0 0.0 0.0
0.0 0.0 0.0
0.0 0.0 0.0
0.0 0.0 0.0
0.0 0.0 0.0
0.0 0.0 0.0
0.0 0.0 0.0
0.0 0.0 0.0
0.0 0.0 0.0
0.0 0.0 0.0
0.0 0.0 0.0
0.0 0.0 0.0
0.0 0.0 0.0
0.0 0.0 0.0
0.0 0.0 0.0
0.0 0.0 0.0
0.0 0.0 0.0
0.0 0.0 0.0
0.0 0.0 0.0
0.0 0.0 0.0
0.0 0.0 0.0
0.0 0.0 0.0
0.0 0.0 0.0
0.0 0.0 0.0
0.0 0.0 0.0
0.0 0.0 0.0
0.0 0.0 0.0
0.0 0.0 0.0
0.0 0.0 0.0
0.0 0.0 0.0
0.0 0.0 0.0
0.0 0.0 0.0
0.0 0.0 0.0
0.0 0.0 0.0
0.0 0.0 0.0
0.0 0.0 0.0
0.0 0.0 0.0
0.0 0.0 0.0
0.0 0.0 0.0
0.0 0.0 0.0
0.0 0.0 0.0
0.0 0.0 0.0
0.0 0.0 0.0
0.0 0.0 0.0
0.0 0.0 0.0
0.0 0.0 0.0
0.0 0.0 0.0
0.0 0.0 0.0
0.0 0.0 0.0
0.0 0.0 0.0
0.0 0.0 0.0
0.0 0.0 0.0
0.0 0.0 0.0
0.0 0.0 0.0
0.0 0.0 0.0
0.0 0.0 0.0
0.0 0.0 0.0
0.0 0.0 0.0
0.0 0.0 0.0
0.0 0.0 0.0
0.0 0.0 0.0
0.0 0.0 0.0
0.0 0.0 0.0
0.0 0.0 0.0
0.0 0.0 0.0
0.0 0.0 0.0
0.0 0.0 0.0
0.0 0.0 0.0
0.0 0.0 0.0
0.0 0.0 0.0
0.0 0.0 0.0
0.0 0.0 0.0
0.0 0.0 0.0
0.0 0.0 0.0
0.0 0.0 0.0
0.0 0.0 0.0
0.0 0.0 0.0
0.0 0.0 0.0
0.0 0.0 0.0
0.0 0.0 0.0
0.0 0.0 0.0
0.0 0.0 0.0
0.0 0.0 0.0
0.0 0.0 0.0
0.0 0.0 0.0
0.0 0.0 0.0
0.0 0.0 0.0
0.0 0.0 0.0
0.0 0.0 0.0
0.0 0.0 0.0
0.0 0.0 0.0
0.0 0.0 0.0
0.0 0.0 0.0
0.0 0.0 0.0
0.0 0.0 0.0
0.0 0.0 0.0
0.0 0.0 0.0
0.0 0.0 0.0
0.0 0.0 0.0
0.0 0.0 0.0
0.0 0.0 0.0
0.0 0.0 0.0
0.0 0.0 0.0
0.0 0.0 0.0
0.0 0.0 0.0
0.0 0.0 0.0
0.0 0.0 0.0
0.0 0.0 0.0
0.0 0.0 0.0
0.0 0.0 0.0
0.0 0.0 0.0
0.0 0.0 0.0
0.0 0.0 0.0
0.0 0.0 0.0
0.0 0.0 0.0
0.0 0.0 0.0
0.0 0.0 0.0
0.0 0.0 0.0
0.0 0.0 0.0
0.0 0.0 0.0
0.0 0.0 0.0
0.0 0.0 0.0
0.0 0.0 0.0
0.0 0.0 0.0
0.0 0.0 0.0
0.0 0.0 0.0
0.0 0.0 0.0
0.0 0.0 0.0
0.0 0.0 0.0
0.0 0.0 0.0
0.0 0.0 0.0
0.0 0.0 0.0
0.0 0.0 0.0
0.0 0.0 0.0
0.0 0.0 0.0
0.0 0.0 0.0
0.0 0.0 0.0
0.0 0.0 0.0
0.0 0.0 0.0
0.0 0.0 0.0
0.0 0.0 0.0
0.0 0.0 0.0
0.0 0.0 0.0
0.0 0.0 0.0
0.0 0.0 0.0
0.0 0.0 0.0
0.0 0.0 0.0
0.0 0.0 0.0
0.0 0.0 0.0
0.0 0.0 0.0
0.0 0.0 0.0
0.0 0.0 0.0
0.0 0.0 0.0
0.0 0.0 0.0
0.0 0.0 0.0
0.0 0.0 0.0
0.0 0.0 0.0
0.0 0.0 0.0
0.0 0.0 0.0
0.0 0.0 0.0
0.0 0.0 0.0
0.0 0.0 0.0
0.0 0.0 0.0
0.0 0.0 0.0
0.0 0.0 0.0
0.0 0.0 0.0
0.0 0.0 0.0
0.0 0.0 0.0
0.0 0.0 0.0
0.0 0.0 0.0
0.0 0.0 0.0
0.0 0.0 0.0
0.0 0.0 0.0
0.0 0.0 0.0
0.0 0.0 0.0
0.0 0.0 0.0
0.0 0.0 0.0
0.0 0.0 0.0
0.0 0.0 0.0
0.0 0.0 0.0
0.0 0.0 0.0
0.0 0.0 0.0
0.0 0.0 0.0
0.0 0.0 0.0
0.0 0.0 0.0
0.0 0.0 0.0
0.0 0.0 0.0
0.0 0.0 0.0
0.0 0.0 0.0
0.0 0.0 0.0
0.0 0.0 0.0
0.0 0.0 0.0
0.0 0.0 0.0
0.0 0.0 0.0
0.0 0.0 0.0
0.0 0.0 0.0
0.0 0.0 0.0
0.0 0.0 0.0
0.0 0.0 0.0
0.0 0.0 0.0
0.0 0.0 0.0
0.0 0.0 0.0
0.0 0.0 0.0
0.0 0.0 0.0
0.0 0.0 0.0
0.0 0.0 0.0
0.0 0.0 0.0
0.0 0.0 0.0
0.0 0.0 0.0
0.0 0.0 0.0
0.0 0.0 0.0
0.0 0.0 0.0
0.0 0.0 0.0
0.0 0.0 0.0
0.0 0.0 0.0
0.0 0.0 0.0
0.0 0.0 0.0
0.0 0.0 0.0
0.0 0.0 0.0
0.0 0.0 0.0
0.0 0.0 0.0
0.0 0.0 0.0
0.0 0.0 0.0
0.0 0.0 0.0
0.0 0.0 0.0
0.0 0.0 0.0
0.0 0.0 0.0
0.0 0.0 0.0
0.0 0.0 0.0
0.0 0.0 0.0
0.0 0.0 0.0
0.0 0.0 0.0
0.0 0.0 0.0
0.0 0.0 0.0
0.0 0.0 0.0
0.0 0.0 0.0
0.0 0.0 0.0
0.0 0.0 0.0
0.0 0.0 0.0
0.0 0.0 0.0
0.0 0.0 0.0
0.0 0.0 0.0
0.0 0.0 0.0
0.0 0.0 0.0
0.0 0.0 0.0
0.0 0.0 0.0
0.0 0.0 0.0
0.0 0.0 0.0
0.0 0.0 0.0
0.0 0.0 0.0
0.0 0.0 0.0
0.0 0.0 0.0
0.0 0.0 0.0
0.0 0.0 0.0
1.51027395973 0.0 0.0
1.50871593519 0.0 0.0
1.50766662121 0.0 0.0
1.50421552402 0.0 0.0
1.50161800576 0.0 0.0
1.49662646228 0.0 0.0
1.4927685279 0.0 0.0
1.48741083073 0.0 0.0
1.48399810037 0.0 0.0
1.48014015092 0.0 0.0
1.47675526864 0.0 0.0
1.47311314843 0.0 0.0
1.46977534474 0.0 0.0
1.46268201483 0.0 0.0
1.45164959315 0.0 0.0
1.44147839401 0.0 0.0
1.42622912244 0.0 0.0
1.41402390298 0.0 0.0
1.39235358402 0.0 0.0
1.36856877049 0.0 0.0
1.34780148769 0.0 0.0
1.32760757834 0.0 0.0
1.30367895036 0.0 0.0
1.29008340279 0.0 0.0
1.27344651623 0.0 0.0
1.25974764929 0.0 0.0
1.24625681349 0.0 0.0
1.2340759684 0.0 0.0
1.22784845803 0.0 0.0
1.22349488159 0.0 0.0
1.22049927291 0.0 0.0
1.22038140095 0.0 0.0
1.22202902407 0.0 0.0
1.22460357472 0.0 0.0
1.22820314844 0.0 0.0
1.23463934539 0.0 0.0
1.24050989518 0.0 0.0
1.24678357531 0.0 0.0
1.25702078387 0.0 0.0
1.26248008042 0.0 0.0
1.27379030675 0.0 0.0
1.28046483381 0.0 0.0
1.29400632072 0.0 0.0
1.30738946729 0.0 0.0
1.32040415164 0.0 0.0
1.33313918457 0.0 0.0
1.35147805579 0.0 0.0
1.37335182134 0.0 0.0
1.38602891931 0.0 0.0
1.40007448109 0.0 0.0
1.42102402002 0.0 0.0
1.44597564364 0.0 0.0
1.46156738539 0.0 0.0
1.48942960609 0.0 0.0
1.52225138918 0.0 0.0
1.54230656736 0.0 0.0
1.58210823755 0.0 0.0
1.62315039133 0.0 0.0
1.65713380001 0.0 0.0
1.69543880996 0.0 0.0
1.73271689122 0.0 0.0
1.78094140357 0.0 0.0
1.83728286646 0.0 0.0
1.89653602789 0.0 0.0
1.94271655999 0.0 0.0
1.9809814289 0.0 0.0
2.03123785864 0.0 0.0
2.07792068893 0.0 0.0
2.12728098445 0.0 0.0
2.16200852148 0.0 0.0
2.21388871136 0.0 0.0
2.24784079045 0.0 0.0
2.30427229001 0.0 0.0
2.36329443411 0.0 0.0
2.41335842993 0.0 0.0
2.49562032943 0.0 0.0
2.56367803216 0.0 0.0
2.61527603014 0.0 0.0
2.69773345583 0.0 0.0
2.74558665578 0.0 0.0
2.78981565625 0.0 0.0
2.83738581616 0.0 0.0
2.85701031068 0.0 0.0
2.8846712054 0.0 0.0
2.89663307257 0.0 0.0
2.92279339312 0.0 0.0
2.9497747914 0.0 0.0
2.98622608261 0.0 0.0
3.02485701775 0.0 0.0
3.07842719518 0.0 0.0
3.12437163155 0.0 0.0
3.18856824872 0.0 0.0
3.21814212722 0.0 0.0
3.26234113636 0.0 0.0
3.28562663963 0.0 0.0
3.29728070175 0.0 0.0
3.29866247348 0.0 0.0
3.29489417296 0.0 0.0
3.28783130287 0.0 0.0
3.285634545 0.0 0.0
3.28912879391 0.0 0.0
3.29545842722 0.0 0.0
3.31688883799 0.0 0.0
3.33450219642 0.0 0.0
3.3713321388 0.0 0.0
3.40564500937 0.0 0.0
3.42965038103 0.0 0.0
3.43908456014 0.0 0.0
3.44045830155 0.0 0.0
3.4355918532 0.0 0.0
3.41403939105 0.0 0.0
3.39741806915 0.0 0.0
3.37106439604 0.0 0.0
3.34866763478 0.0 0.0
3.3246248143 0.0 0.0
3.31547140357 0.0 0.0
3.29998168153 0.0 0.0
3.29329403666 0.0 0.0
3.27887627076 0.0 0.0
3.26309782389 0.0 0.0
3.25134129369 0.0 0.0
3.2181276848 0.0 0.0
3.1914302453 0.0 0.0
3.16116748351 0.0 0.0
3.11117863717 0.0 0.0
3.07477242199 0.0 0.0
3.02279329498 0.0 0.0
2.96878591098 0.0 0.0
2.9311934737 0.0 0.0
2.86973836596 0.0 0.0
2.82923360255 0.0 0.0
2.77088598492 0.0 0.0
2.71342356589 0.0 0.0
2.64917639526 0.0 0.0
2.58711524673 0.0 0.0
2.55101953498 0.0 0.0
2.48693948898 0.0 0.0
2.41702272166 0.0 0.0
2.34480412383 0.0 0.0
2.28939221426 0.0 0.0
2.22872788406 0.0 0.0
2.17348593239 0.0 0.0
2.10658768345 0.0 0.0
2.0297267018 0.0 0.0
1.98743625592 0.0 0.0
1.9187714574 0.0 0.0
1.87869146745 0.0 0.0
1.81350559968 0.0 0.0
1.75795838072 0.0 0.0
1.70514707978 0.0 0.0
1.66992220431 0.0 0.0
1.62572679629 0.0 0.0
1.58073731575 0.0 0.0
1.53531121735 0.0 0.0
1.50355232477 0.0 0.0
1.46628382069 0.0 0.0
1.44232114838 0.0 0.0
1.41210516503 0.0 0.0
1.39111639979 0.0 0.0
1.36363025985 0.0 0.0
1.35066542002 0.0 0.0
1.32672885896 0.0 0.0
1.31007615921 0.0 0.0
1.29515899474 0.0 0.0
1.27624468511 0.0 0.0
1.259033247 0.0 0.0
1.24845970654 0.0 0.0
1.2355022536 0.0 0.0
1.22297248287 0.0 0.0
1.21504065316 0.0 0.0
1.20492421014 0.0 0.0
1.19409198062 0.0 0.0
1.18715001618 0.0 0.0
1.17883399205 0.0 0.0
1.16973632827 0.0 0.0
1.16449019941 0.0 0.0
1.15869283226 0.0 0.0
1.15366705 0.0 0.0
1.14898635239 0.0 0.0
1.14414958781 0.0 0.0
1.13990868794 0.0 0.0
1.13703297461 0.0 0.0
1.13337847687 0.0 0.0
1.13169263838 0.0 0.0
1.12881572837 0.0 0.0
1.12692865048 0.0 0.0
1.12526698057 0.0 0.0
1.12366934133 0.0 0.0
1.12279179676 0.0 0.0
1.12171503014 0.0 0.0
1.12056425044 0.0 0.0
1.12004988443 0.0 0.0
1.11927600842 0.0 0.0
1.11889465513 0.0 0.0
1.11847139572 0.0 0.0
1.11827720859 0.0 0.0
1.11827432696 0.0 0.0
1.11800814736 0.0 0.0
1.11792514741 0.0 0.0
1.49625 0.0 0.0
1.485 0.0 0.0
1.46625 0.0 0.0
1.44 0.0 0.0
1.40625 0.0 0.0
1.365 0.0 0.0
1.31625 0.0 0.0
1.26 0.0 0.0
1.19625 0.0 0.0
1.125 0.0 0.0
1.04625 0.0 0.0
0.960000000002 0.0 0.0
0.866250000002 0.0 0.0
0.765000000002 0.0 0.0
0.656250000001 0.0 0.0
0.540000000001 0.0 0.0
0.416250000001 0.0 0.0
0.285000000001 0.0 0.0
0.14625 0.0 0.0
1.11809025048 -1.64576108124e-05 0.0
1.11819639737 2.34748353157e-05 0.0
1.11833059181 2.62174766349e-05 0.0
1.11800396176 1.14781304117e-05 0.0
1.11791023068 7.88982703068e-06 0.0
1.11772074732 1.71234326415e-05 0.0
1.11791867871 3.47061166228e-06 0.0
1.11751524473 -3.54289221839e-05 0.0
1.1173014188 -3.18598374534e-07 0.0
1.11776535705 -7.61850804556e-06 0.0
1.11740523562 -3.39861935469e-05 0.0
1.11738561818 1.17968687095e-05 0.0
1.11758718215 8.11079410309e-05 0.0
1.11761898975 6.30728291875e-06 0.0
1.11608736419 4.34113039944e-05 0.0
1.11329450232 -9.93655226035e-06 0.0
1.10784846299 0.000281834435006 0.0
1.09904129407 0.000621346005756 0.0
1.08448524606 -0.000835785671175 0.0
1.06325956763 0.00226747389988 0.0
1.02920784349 -0.00108573033013 0.0
0.983310132681 0.0029722556829 0.0
0.92437155949 0.00227952644045 0.0
0.848738963102 0.002703017607 0.0
0.760846301095 0.00205506277006 0.0
0.662968465099 0.00171628874052 0.0
0.543237694756 0.00497799962713 0.0
0.397168982131 0.00598747740587 0.0
0.250675682838 0.00507258949202 0.0
0.106303135934 0.00995666016673 0.0
1.17211407323 0.115783215254 0.0
1.13083035723 -0.0413242781431 0.0
1.26877779537 -0.116844624236 0.0
1.27389772325 0.293978952421 0.0
1.12612376911 0.0475422823569 0.0
1.11153204499 0.00769395328975 0.0
1.43412005121 -0.255578499072 0.0
1.46339308679 0.368283786254 0.0
1.06973729777 0.134284779696 0.0
2.02880314197 -0.18702204725 0.0
1.78966332348 0.221766244762 0.0
1.08980271306 -0.00280680058198 0.0
1.23368247709 -0.10882886426 0.0
1.23357539996 0.174805167919 0.0
1.1234278303 0.0369260382679 0.0
0.485353983677 0.15293182169 0.0
0.793147430167 -0.0499749270985 0.0
1.06366361889 0.0801841351047 0.0
1.06857730469 0.0240927852182 0.0
1.35357200065 -0.186253172062 0.0
1.34431030687 0.379499912475 0.0
2.35581034977 0.0129660810739 0.0
2.18283006404 0.125201302728 0.0
0.872448694067 0.159196167252 0.0
2.29585201283 0.0637783023903 0.0
1.70883929651 -0.380060240216 0.0
1.8693383339 0.291259315129 0.0
1.04153652125 -0.000853462071917 0.0
1.000944077 0.058101751114 0.0
2.18585930655 0.227324716101 0.0
2.08875362023 -0.249189952418 0.0
0.980830849649 0.00817320080718 0.0
1.1170116357 0.00130017266348 0.0
0.824100479812 -0.118301408727 0.0
2.95997778113 0.112452286672 0.0
2.76982731921 -0.201098644996 0.0
0.765710965245 0.0940011655157 0.0
2.38180100147 0.188261401599 0.0
2.29807221851 -0.394277998627 0.0
3.004842455 0.0741060314001 0.0
0.976286493414 0.168084470184 0.0
1.02321320193 -0.16165222747 0.0
0.387808065645 0.0314875852543 0.0
1.16043954201 0.0647453986899 0.0
1.04378326236 -0.354921264415 0.0
0.163286523102 0.163673962493 0.0
1.18973150389 -0.080538359576 0.0
0.945368905507 0.0001483639086 0.0
0.844677258273 0.129814376407 0.0
0.896650523644 -0.00719849520952 0.0
1.25919328248 0.0867469496241 0.0
1.03190860873 0.159573386021 0.0
1.12582355521 0.0167040092966 0.0
1.11960523476 -0.19972085386 0.0
0.7649755571 0.233602319156 0.0
1.12434261569 -0.21735911902 0.0
0.401705438821 -0.00637165393697 0.0
1.07048459581 -0.19361421235 0.0
1.21374883721 -0.0360242590275 0.0
1.18015873197 0.044724339331 0.0
1.37060986877 0.145167912118 0.0
0.830392983641 0.0115932977545 0.0
2.70994439177 0.00823638601905 0.0
2.8450343368 -0.084905965461 0.0
1.2713233716 -0.0594564759566 0.0
1.3508965737 -0.0847509960324 0.0
1.57569897058 0.212574778968 0.0
0.875000101343 -0.000407231315564 0.0
0.843083170293 0.0242506190672 0.0
0.768226918135 0.052631694175 0.0
2.87419842214 -0.139784780168 0.0
3.18302340887 -0.122151931499 0.0
1.33176674777 0.0259246011242 0.0
1.28791302115 0.109569886764 0.0
2.68365640038 -0.350673548786 0.0
2.68878540893 0.0788409053775 0.0
1.81613184554 0.287936997569 0.0
1.45062442374 -0.126289257597 0.0
0.850250840125 0.0622119511764 0.0
1.22850605579 -0.201984489008 0.0
0.612515595573 0.298845367493 0.0
3.14411232528 -0.0706464321664 0.0
0.0927710873926 0.164259292706 0.0
0.839944473409 0.0221516918401 0.0
0.820104797383 -0.0371649799369 0.0
0.816547006728 0.0940574232052 0.0
0.982296459029 -0.00736218233891 0.0
0.51804607623 -0.0264194103504 0.0
1.15480220799 0.0295082231313 0.0
0.196681259166 0.0165223402595 0.0
0.00292762636419 -0.0229552732831 0.0
1.11953472306 0.00446629786822 0.0
0.554889505416 0.00644528097739 0.0
1.20666705529 0.0649534404425 0.0
0.631467074796 0.05325078004 0.0
0.142851686005 0.0124470916643 0.0
0.0245495739583 0.0639231421583 0.0
0.676552001713 0.0403163840546 0.0
0.441427163007 0.153640012275 0.0
0.678144825658 0.0319706459537 0.0
0.255053259116 0.0758546750985 0.0
1.21138615735 0.150520656339 0.0
1.39895087945 -0.61086148426 0.0
1.11620474997 -0.00113213904496 0.0
1.41601749685 0.209255955506 0.0
1.91198831555 -0.534156300816 0.0
2.09440485624 0.267422362045 0.0
1.58968112282 -0.168879725227 0.0
0.762948445913 -0.00552523274171 0.0
0.590292264586 0.125425334861 0.0
0.740559786015 -0.00170459615515 0.0
1.10817746591 0.00146385015594 0.0
0.740071240537 0.00289252668984 0.0
0.383628255228 0.0981917478449 0.0
0.617443825878 0.0145236161028 0.0
1.09431838407 0.00805207185874 0.0
1.11135999744 0.020450181572 0.0
0.437305941007 0.0946523823161 0.0
1.17402811742 -0.0933108497175 0.0
0.968670260458 0.105745136328 0.0
1.22956808867 0.103475867094 0.0
1.14598141369 -0.162440759458 0.0
0.673767615676 0.0282719868959 0.0
1.38747152018 0.0241836745206 0.0
1.08716131208 0.211125080959 0.0
1.9450791913 -0.145939974936 0.0
1.10567814912 0.0292787158793 0.0
1.10561486186 0.103205466165 0.0
0.556524929501 -0.126897058829 0.0
1.10734891971 0.0669138595502 0.0
-0.232033628008 -0.0350694041257 0.0
1.38462876812 0.398672277722 0.0
1.09439397626 0.0458223209357 0.0
1.40206965526 -0.202356294992 0.0
1.17811160675 -0.0100648697945 0.0
1.25067823966 0.230505741566 0.0
0.70803511107 0.0100093586611 0.0
1.25990189586 -0.0972163878237 0.0
1.09687554237 -0.00428896248822 0.0
1.18257706973 0.0376448071603 0.0
0.258332053944 0.0417715516133 0.0
0.648517718414 -0.137075723498 0.0
1.11822628676 0.000634277674598 0.0
1.01608691806 -0.243910703845 0.0
0.364876931502 0.154184949233 0.0
1.03280069883 -0.0708385422628 0.0
0.665800237175 0.000364077812924 0.0
1.29289146115 -0.160700228821 0.0
1.2866171235 0.339710049401 0.0
1.46628612955 -0.37681796678 0.0
1.09996900112 0.158568688969 0.0
0.357872810506 -0.0166309429791 0.0
-0.148803663133 -0.237101229603 0.0
2.68839039565 -0.362402644499 0.0
0.420081258229 -0.104973396813 0.0
1.17080248663 -0.136389644985 0.0
0.966491908321 0.277577284666 0.0
0.547300337619 -0.0427920564957 0.0
0.737688626559 -0.235277497741 0.0
1.29587072388 0.1347092327 0.0
1.87528412461 -0.186867861835 0.0
2.42768696444 0.185285247631 0.0
2.67012404367 0.170692833266 0.0
2.15880501296 -0.13824559496 0.0
0.618982232188 0.144270602075 0.0
1.2382783758 -0.0661339946041 0.0
0.449056897864 -0.238197409934 0.0
-0.287685870628 0.0511567527915 0.0
0.250421405147 0.0846890462084 0.0
0.608410784309 0.0797405279789 0.0
0.322496171834 0.114264941378 0.0
0.895056646002 -0.09298661711 0.0
0.593370511464 -0.0136650893125 0.0
1.11502142096 0.00336770262826 0.0
-0.171022320195 0.031429780958 0.0
0.619725102078 0.0517592008499 0.0
1.01473597995 0.134314762358 0.0
1.1335992864 0.153415022968 0.0
1.11393506707 -3.91806690918e-05 0.0
1.42832012972 0.231873952601 0.0
1.11081292307 0.0317434097688 0.0
0.362488846787 0.0488587804318 0.0
1.29885049682 -0.0875367444081 0.0
0.616896866434 -0.0150565212497 0.0
1.8368280696 -0.31333715106 0.0
1.13418025787 0.0289096113184 0.0
0.539108013482 0.0511720990524 0.0
0.577668705432 -0.0104957696044 0.0
1.07978390431 -0.120427317808 0.0
1.28764896546 0.274231544635 0.0
0.0587688673248 0.195277824248 0.0
0.930368705566 0.231482178154 0.0
1.11752010695 0.000109093880775 0.0
1.11899644859 0.0104150862583 0.0
0.639215883006 0.0321155408711 0.0
2.05180977389 0.097268872864 0.0
1.5490354388 0.0361821128113 0.0
1.15485641809 -0.0829504458584 0.0
1.11682881886 0.0326153655054 0.0
0.884802589309 -0.0165904541294 0.0
1.07371712028 -0.00129567156932 0.0
1.32831451968 0.0680826482329 0.0
0.583372872544 -0.00285750902533 0.0
2.12719500048 -0.619192468829 0.0
1.68125783972 0.148093751949 0.0
0.538951731344 -0.00513930212931 0.0
0.547924610752 0.0127266961578 0.0
1.9660039871 0.184821942075 0.0
2.48133663248 0.0563466413455 0.0
0.461443129454 0.0258138922331 0.0
1.21702223485 0.107919175669 0.0
1.24716977643 -0.0283933048824 0.0
1.13990684669 0.0797073482133 0.0