# vtk DataFile Version 2.0
2D Simulation Python
ASCII
DATASET UNSTRUCTURED_GRID
FIELD FieldData 1
NODES 1 2 int
10482 20142

POINTS 10482 double
0.0 1.0 0.0
1.85 1.0 0.0
2.15 1.0 0.0
2.5312 0.9845 0.0
2.804 0.8597 0.0
3.1897 0.7164 0.0
3.4784 0.635 0.0
3.8514 0.5613 0.0
4.1492 0.5258 0.0
4.5167 0.5049 0.0
4.8167 0.5003 0.0
5.1833 0.5003 0.0
5.4833 0.5049 0.0
5.8508 0.5258 0.0
6.1486 0.5613 0.0
6.5216 0.635 0.0
6.8103 0.7164 0.0
7.196 0.8597 0.0
7.4688 0.9845 0.0
7.85 1.0 0.0
8.15 1.0 0.0
10.0 1.0 0.0
2.0 0.85 0.0
2.604294 0.783787 0.0
3.292593 0.528828 0.0
3.982247 0.392281 0.0
4.6644 0.351597 0.0
5.3356 0.351597 0.0
6.017753 0.392281 0.0
6.707407 0.528828 0.0
7.395706 0.783787 0.0
8.0 0.85 0.0
0.0 0.0 0.0
10.0 0.0 0.0
0.0491691676142 1.0 0.0
0.097554253939 1.0 0.0
0.145167743324 1.0 0.0
0.192021963803 1.0 0.0
0.238129005504 1.0 0.0
0.283500789763 1.0 0.0
0.328149041249 1.0 0.0
0.372085302754 1.0 0.0
0.415320915931 1.0 0.0
0.457867067086 1.0 0.0
0.49973474072 1.0 0.0
0.540934763644 1.0 0.0
0.581477778121 1.0 0.0
0.621374266171 1.0 0.0
0.660634530769 1.0 0.0
0.69926872474 1.0 0.0
0.73728682368 1.0 0.0
0.77469866286 1.0 0.0
0.811513900812 1.0 0.0
0.847742062503 1.0 0.0
0.883392493478 1.0 0.0
0.918474411527 1.0 0.0
0.952996904325 1.0 0.0
0.986968857197 1.0 0.0
1.02039907406 1.0 0.0
1.05329619375 1.0 0.0
1.08566869778 1.0 0.0
1.11752497276 1.0 0.0
1.14887324162 1.0 0.0
1.1797216189 1.0 0.0
1.21007804842 1.0 0.0
1.23995039345 1.0 0.0
1.26934637384 1.0 0.0
1.2982735845 1.0 0.0
1.32673951414 1.0 0.0
1.35475149185 1.0 0.0
1.3823167683 1.0 0.0
1.40944246702 1.0 0.0
1.43613559866 1.0 0.0
1.462403063 1.0 0.0
1.48825164779 1.0 0.0
1.51368802903 1.0 0.0
1.53871878228 1.0 0.0
1.5633503775 1.0 0.0
1.58758918168 1.0 0.0
1.61144144849 1.0 0.0
1.63491335232 1.0 0.0
1.65801095772 1.0 0.0
1.68074022688 1.0 0.0
1.70310704008 1.0 0.0
1.72511717965 1.0 0.0
1.74677632302 1.0 0.0
1.76809007211 1.0 0.0
1.78906393974 1.0 0.0
1.80970333876 1.0 0.0
1.83001360824 1.0 0.0
2.16906 0.999225 0.0
2.18812 0.99845 0.0
2.20718 0.997675 0.0
2.22624 0.9969 0.0
2.2453 0.996125 0.0
2.26436 0.99535 0.0
2.28342 0.994575 0.0
2.30248 0.9938 0.0
2.32154 0.993025 0.0
2.3406 0.99225 0.0
2.35966 0.991475 0.0
2.37872 0.9907 0.0
2.39778 0.989925 0.0
2.41684 0.98915 0.0
2.4359 0.988375 0.0
2.45496 0.9876 0.0
2.47402 0.986825 0.0
2.49308 0.98605 0.0
2.51214 0.985275 0.0
2.82236666667 0.852876190476 0.0
2.84073333333 0.846052380952 0.0
2.8591 0.839228571429 0.0
2.87746666667 0.832404761905 0.0
2.89583333333 0.825580952381 0.0
2.9142 0.818757142857 0.0
2.93256666667 0.811933333333 0.0
2.95093333333 0.80510952381 0.0
2.9693 0.798285714286 0.0
2.98766666667 0.791461904762 0.0
3.00603333333 0.784638095238 0.0
3.0244 0.777814285714 0.0
3.04276666667 0.770990476191 0.0
3.06113333333 0.764166666667 0.0
3.0795 0.757342857143 0.0
3.09786666667 0.750519047619 0.0
3.11623333333 0.743695238095 0.0
3.1346 0.736871428571 0.0
3.15296666667 0.730047619048 0.0
3.17133333333 0.723223809524 0.0
3.49705 0.631315 0.0
3.5157 0.62763 0.0
3.53435 0.623945 0.0
3.553 0.62026 0.0
3.57165 0.616575 0.0
3.5903 0.61289 0.0
3.60895 0.609205 0.0
3.6276 0.60552 0.0
3.64625 0.601835 0.0
3.6649 0.59815 0.0
3.68355 0.594465 0.0
3.7022 0.59078 0.0
3.72085 0.587095 0.0
3.7395 0.58341 0.0
3.75815 0.579725 0.0
3.7768 0.57604 0.0
3.79545 0.572355 0.0
3.8141 0.56867 0.0
3.83275 0.564985 0.0
4.16854210526 0.5247 0.0
4.18788421053 0.5236 0.0
4.20722631579 0.5225 0.0
4.22656842105 0.5214 0.0
4.24591052632 0.5203 0.0
4.26525263158 0.5192 0.0
4.28459473684 0.5181 0.0
4.3039368421 0.517 0.0
4.32327894737 0.5159 0.0
4.34262105263 0.5148 0.0
4.36196315789 0.5137 0.0
4.38130526316 0.5126 0.0
4.40064736842 0.5115 0.0
4.41998947368 0.5104 0.0
4.43933157895 0.5093 0.0
4.45867368421 0.5082 0.0
4.47801578947 0.5071 0.0
4.49735789474 0.506 0.0
4.83599473684 0.5003 0.0
4.85528947368 0.5003 0.0
4.87458421053 0.5003 0.0
4.89387894737 0.5003 0.0
4.91317368421 0.5003 0.0
4.93246842105 0.5003 0.0
4.95176315789 0.5003 0.0
4.97105789474 0.5003 0.0
4.99035263158 0.5003 0.0
5.00964736842 0.5003 0.0
5.02894210526 0.5003 0.0
5.0482368421 0.5003 0.0
5.06753157895 0.5003 0.0
5.08682631579 0.5003 0.0
5.10612105263 0.5003 0.0
5.12541578947 0.5003 0.0
5.14471052632 0.5003 0.0
5.16400526316 0.5003 0.0
5.50264210526 0.506 0.0
5.52198421053 0.5071 0.0
5.54132631579 0.5082 0.0
5.56066842105 0.5093 0.0
5.58001052632 0.5104 0.0
5.59935263158 0.5115 0.0
5.61869473684 0.5126 0.0
5.6380368421 0.5137 0.0
5.65737894737 0.5148 0.0
5.67672105263 0.5159 0.0
5.69606315789 0.517 0.0
5.71540526316 0.5181 0.0
5.73474736842 0.5192 0.0
5.75408947368 0.5203 0.0
5.77343157895 0.5214 0.0
5.79277368421 0.5225 0.0
5.81211578947 0.5236 0.0
5.83145789474 0.5247 0.0
6.16725 0.564985 0.0
6.1859 0.56867 0.0
6.20455 0.572355 0.0
6.2232 0.57604 0.0
6.24185 0.579725 0.0
6.2605 0.58341 0.0
6.27915 0.587095 0.0
6.2978 0.59078 0.0
6.31645 0.594465 0.0
6.3351 0.59815 0.0
6.35375 0.601835 0.0
6.3724 0.60552 0.0
6.39105 0.609205 0.0
6.4097 0.61289 0.0
6.42835 0.616575 0.0
6.447 0.62026 0.0
6.46565 0.623945 0.0
6.4843 0.62763 0.0
6.50295 0.631315 0.0
6.82866666667 0.723223809524 0.0
6.84703333333 0.730047619048 0.0
6.8654 0.736871428571 0.0
6.88376666667 0.743695238095 0.0
6.90213333333 0.750519047619 0.0
6.9205 0.757342857143 0.0
6.93886666667 0.764166666667 0.0
6.95723333333 0.77099047619 0.0
6.9756 0.777814285714 0.0
6.99396666667 0.784638095238 0.0
7.01233333333 0.791461904762 0.0
7.0307 0.798285714286 0.0
7.04906666667 0.80510952381 0.0
7.06743333333 0.811933333333 0.0
7.0858 0.818757142857 0.0
7.10416666667 0.825580952381 0.0
7.12253333333 0.832404761905 0.0
7.1409 0.839228571429 0.0
7.15926666667 0.846052380952 0.0
7.17763333333 0.852876190476 0.0
7.48786 0.985275 0.0
7.50692 0.98605 0.0
7.52598 0.986825 0.0
7.54504 0.9876 0.0
7.5641 0.988375 0.0
7.58316 0.98915 0.0
7.60222 0.989925 0.0
7.62128 0.9907 0.0
7.64034 0.991475 0.0
7.6594 0.99225 0.0
7.67846 0.993025 0.0
7.69752 0.9938 0.0
7.71658 0.994575 0.0
7.73564 0.99535 0.0
7.7547 0.996125 0.0
7.77376 0.9969 0.0
7.79282 0.997675 0.0
7.81188 0.99845 0.0
7.83094 0.999225 0.0
8.16989247312 1.0 0.0
8.18978494624 1.0 0.0
8.20967741936 1.0 0.0
8.22956989247 1.0 0.0
8.24946236559 1.0 0.0
8.26935483871 1.0 0.0
8.28924731183 1.0 0.0
8.30913978495 1.0 0.0
8.32903225806 1.0 0.0
8.34892473118 1.0 0.0
8.3688172043 1.0 0.0
8.38870967742 1.0 0.0
8.40860215054 1.0 0.0
8.42849462366 1.0 0.0
8.44838709677 1.0 0.0
8.46827956989 1.0 0.0
8.48817204301 1.0 0.0
8.50806451613 1.0 0.0
8.52795698925 1.0 0.0
8.54784946237 1.0 0.0
8.56774193548 1.0 0.0
8.5876344086 1.0 0.0
8.60752688172 1.0 0.0
8.62741935484 1.0 0.0
8.64731182796 1.0 0.0
8.66720430108 1.0 0.0
8.68709677419 1.0 0.0
8.70698924731 1.0 0.0
8.72688172043 1.0 0.0
8.74677419355 1.0 0.0
8.76666666667 1.0 0.0
8.78655913979 1.0 0.0
8.8064516129 1.0 0.0
8.82634408602 1.0 0.0
8.84623655914 1.0 0.0
8.86612903226 1.0 0.0
8.88602150538 1.0 0.0
8.90591397849 1.0 0.0
8.92580645161 1.0 0.0
8.94569892473 1.0 0.0
8.96559139785 1.0 0.0
8.98548387097 1.0 0.0
9.00537634409 1.0 0.0
9.0252688172 1.0 0.0
9.04516129032 1.0 0.0
9.06505376344 1.0 0.0
9.08494623656 1.0 0.0
9.10483870968 1.0 0.0
9.1247311828 1.0 0.0
9.14462365591 1.0 0.0
9.16451612903 1.0 0.0
9.18440860215 1.0 0.0
9.20430107527 1.0 0.0
9.22419354839 1.0 0.0
9.24408602151 1.0 0.0
9.26397849462 1.0 0.0
9.28387096774 1.0 0.0
9.30376344086 1.0 0.0
9.32365591398 1.0 0.0
9.3435483871 1.0 0.0
9.36344086022 1.0 0.0
9.38333333333 1.0 0.0
9.40322580645 1.0 0.0
9.42311827957 1.0 0.0
9.44301075269 1.0 0.0
9.46290322581 1.0 0.0
9.48279569893 1.0 0.0
9.50268817204 1.0 0.0
9.52258064516 1.0 0.0
9.54247311828 1.0 0.0
9.5623655914 1.0 0.0
9.58225806452 1.0 0.0
9.60215053764 1.0 0.0
9.62204301075 1.0 0.0
9.64193548387 1.0 0.0
9.66182795699 1.0 0.0
9.68172043011 1.0 0.0
9.70161290323 1.0 0.0
9.72150537634 1.0 0.0
9.74139784946 1.0 0.0
9.76129032258 1.0 0.0
9.7811827957 1.0 0.0
9.80107526882 1.0 0.0
9.82096774194 1.0 0.0
9.84086021505 1.0 0.0
9.86075268817 1.0 0.0
9.88064516129 1.0 0.0
9.90053763441 1.0 0.0
9.92043010753 1.0 0.0
9.94032258065 1.0 0.0
9.96021505376 1.0 0.0
9.98010752688 1.0 0.0
1.85128327079 0.980421071167 0.0
1.85511112606 0.961177143235 0.0
1.86141807012 0.942597485145 0.0
1.87009618943 0.925 0.0
1.88099699896 0.908685785649 0.0
1.89393398282 0.893933982822 0.0
1.90868578565 0.880996998956 0.0
1.925 0.870096189432 0.0
1.94259748515 0.861418070123 0.0
1.96117714323 0.855111126057 0.0
1.98042107117 0.851283270794 0.0
2.52391268068 0.966096856559 0.0
2.51911222352 0.946894348328 0.0
2.51688223589 0.927226916707 0.0
2.5172615565 0.907437100457 0.0
2.52024357888 0.887869569854 0.0
2.5257763665 0.868865123729 0.0
2.5337635573 0.850754753924 0.0
2.54406604199 0.833853880556 0.0
2.55650438686 0.818456858493 0.0
2.57086195887 0.804831850704 0.0
2.58688869869 0.793216157786 0.0
3.18525501842 0.697072231334 0.0
3.18339947112 0.677326916774 0.0
3.18416581323 0.657509418884 0.0
3.18754064075 0.637966362777 0.0
3.19346492506 0.619039573342 0.0
3.2018350453 0.601060096433 0.0
3.21250460088 0.584342408593 0.0
3.22528697206 0.569178916585 0.0
3.23995858416 0.555834842951 0.0
3.25626281805 0.544543587035 0.0
3.27391449862 0.535502642631 0.0
3.85004714702 0.541534487203 0.0
3.85131180845 0.521763135737 0.0
3.85517190889 0.502331066061 0.0
3.86156006805 0.483577476273 0.0
3.87036477687 0.46582972121 0.0
3.88143234405 0.449397598275 0.0
3.89456957874 0.43456793975 0.0
3.90954716286 0.421599605963 0.0
3.92610365396 0.410718966736 0.0
3.94395004883 0.402115949968 0.0
3.96277482825 0.395940726327 0.0
4.51756161412 0.485210007383 0.0
4.52099669577 0.465802833395 0.0
4.52694597066 0.447013359842 0.0
4.53530678068 0.429165809757 0.0
4.54593485529 0.412568152752 0.0
4.55864680105 0.397506790821 0.0
4.57322326611 0.384241616317 0.0
4.58941272528 0.373001527356 0.0
4.60693582026 0.363980478056 0.0
4.62549018009 0.357334131745 0.0
4.64475563877 0.353177174902 0.0
5.18476456874 0.480649685917 0.0
5.18879220311 0.461360881742 0.0
5.19531340393 0.442766427057 0.0
[...]
POINT_DATA 10482
VECTORS vector double
0.0 0.0 0.0
0.0 0.0 0.0
0.0 0.0 0.0
0.0 0.0 0.0
0.0 0.0 0.0
0.0 0.0 0.0
0.0 0.0 0.0
0.0 0.0 0.0
0.0 0.0 0.0
0.0 0.0 0.0
0.0 0.0 0.0
0.0 0.0 0.0
0.0 0.0 0.0
0.0 0.0 0.0
0.0 0.0 0.0
0.0 0.0 0.0
0.0 0.0 0.0
0.0 0.0 0.0
0.0 0.0 0.0
0.0 0.0 0.0
0.0 0.0 0.0
0.0 0.0 0.0
0.0 0.0 0.0
0.0 0.0 0.0
0.0 0.0 0.0
0.0 0.0 0.0
0.0 0.0 0.0
0.0 0.0 0.0
0.0 0.0 0.0
0.0 0.0 0.0
0.0 0.0 0.0
0.0 0.0 0.0
1.5 0.0 0.0
1.11726789557 0.0 0.0
0.0 0.0 0.0
0.0 0.0 0.0
0.0 0.0 0.0
0.0 0.0 0.0
0.0 0.0 0.0
0.0 0.0 0.0
0.0 0.0 0.0
0.0 0.0 0.0
0.0 0.0 0.0
0.0 0.0 0.0
0.0 0.0 0.0
0.0 0.0 0.0
0.0 0.0 0.0
0.0 0.0 0.0
0.0 0.0 0.0
0.0 0.0 0.0
0.0 0.0 0.0
0.0 0.0 0.0
0.0 0.0 0.0
0.0 0.0 0.0
0.0 0.0 0.0
0.0 0.0 0.0
0.0 0.0 0.0
0.0 0.0 0.0
0.0 0.0 0.0
0.0 0.0 0.0
0.0 0.0 0.0
0.0 0.0 0.0
0.0 0.0 0.0
0.0 0.0 0.0
0.0 0.0 0.0
0.0 0.0 0.0
0.0 0.0 0.0
0.0 0.0 0.0
0.0 0.0 0.0
0.0 0.0 0.0
0.0 0.0 0.0
0.0 0.0 0.0
0.0 0.0 0.0
0.0 0.0 0.0
0.0 0.0 0.0
0.0 0.0 0.0
0.0 0.0 0.0
0.0 0.0 0.0
0.0 0.0 0.0
0.0 0.0 0.0
0.0 0.0 0.0
0.0 0.0 0.0
0.0 0.0 0.0
0.0 0.0 0.0
0.0 0.0 0.0
0.0 0.0 0.0
0.0 0.0 0.0
0.0 0.0 0.0
0.0 0.0 0.0
0.0 0.0 0.0
0.0 0.0 0.0
0.0 0.0 0.0
0.0 0.0 0.0
0.0 0.0 0.0
0.0 0.0 0.0
0.0 0.0 0.0
0.0 0.0 0.0
0.0 0.0 0.0
0.0 0.0 0.0
0.0 0.0 0.0
0.0 0.0 0.0
0.0 0.0 0.0
0.0 0.0 0.0
0.0 0.0 0.0
0.0 0.0 0.0
0.0 0.0 0.0
0.0 0.0 0.0
0.0 0.0 0.0
0.0 0.0 0.0
0.0 0.0 0.0
0.0 0.0 0.0
0.0 0.0 0.0
0.0 0.0 0.0
0.0 0.0 0.0
0.0 0.0 0.0
0.0 0.0 0.0
0.0 0.0 0.0
0.0 0.0 0.0
0.0 0.0 0.0
0.0 0.0 0.0
0.0 0.0 0.0
0.0 0.0 0.0
0.0 0.0 0.0
0.0 0.0 0.0
0.0 0.0 0.0
0.0 0.0 0.0
0.0 0.0 0.0
0.0 0.0 0.0
0.0 0.0 0.0
0.0 0.0 0.0
0.0 0.0 0.0
0.0 0.0 0.0
0.0 0.0 0.0
0.0 0.0 0.0
0.0 0.0 0.0
0.0 0.0 0.0
0.0 0.0 0.0
0.0 0.0 0.0
0.0 0.0 0.0
0.0 0.0 0.0
0.0 0.0 0.0
0.0 0.0 0.0
0.0 0.0 0.0
0.0 0.0 0.0
0.0 0.0 0.0
0.0 0.0 0.0
0.0 0.0 0.0
0.0 0.0 0.0
0.0 0.0 0.0
0.0 0.0 0.0
0.0 0.0 0.0
0.0 0.0 0.0
0.0 0.0 0.0
0.0 0.0 0.0
0.0 0.0 0.0
0.0 0.0 0.0
0.0 0.0 0.0
0.0 0.0 0.0
0.0 0.0 0.0
0.0 0.0 0.0
0.0 0.0 0.0
0.0 0.0 0.0
0.0 0.0 0.0
0.0 0.0 0.0
0.0 0.0 0.0
0.0 0.0 0.0
0.0 0.0 0.0
0.0 0.0 0.0
0.0 0.0 0.0
0.0 0.0 0.0
0.0 0.0 0.0
0.0 0.0 0.0
0.0 0.0 0.0
0.0 0.0 0.0
0.0 0.0 0.0
0.0 0.0 0.0
0.0 0.0 0.0
0.0 0.0 0.0
0.0 0.0 0.0
0.0 0.0 0.0
0.0 0.0 0.0
0.0 0.0 0.0
0.0 0.0 0.0
0.0 0.0 0.0
0.0 0.0 0.0
0.0 0.0 0.0
0.0 0.0 0.0
0.0 0.0 0.0
0.0 0.0 0.0
0.0 0.0 0.0
0.0 0.0 0.0
0.0 0.0 0.0
0.0 0.0 0.0
0.0 0.0 0.0
0.0 0.0 0.0
0.0 0.0 0.0
0.0 0.0 0.0
0.0 0.0 0.0
0.0 0.0 0.0
0.0 0.0 0.0
0.0 0.0 0.0
0.0 0.0 0.0
0.0 0.0 0.0
0.0 0.0 0.0
0.0 0.0 0.0
0.0 0.0 0.0
0.0 0.0 0.0
0.0 0.0 0.0
0.0 0.0 0.0
0.0 0.0 0.0
0.0 0.0 0.0
0.0 0.0 0.0
0.0 0.0 0.0
0.0 0.0 0.0
0.0 0.0 0.0
0.0 0.0 0.0
0.0 0.0 0.0
0.0 0.0 0.0
0.0 0.0 0.0
0.0 0.0 0.0
0.0 0.0 0.0
0.0 0.0 0.0
0.0 0.0 0.0
0.0 0.0 0.0
0.0 0.0 0.0
0.0 0.0 0.0
0.0 0.0 0.0
0.0 0.0 0.0
0.0 0.0 0.0
0.0 0.0 0.0
0.0 0.0 0.0
0.0 0.0 0.0
0.0 0.0 0.0
0.0 0.0 0.0
0.0 0.0 0.0
0.0 0.0 0.0
0.0 0.0 0.0
0.0 0.0 0.0
0.0 0.0 0.0
0.0 0.0 0.0
0.0 0.0 0.0
0.0 0.0 0.0
0.0 0.0 0.0
0.0 0.0 0.0
0.0 0.0 0.0
0.0 0.0 0.0
0.0 0.0 0.0
0.0 0.0 0.0
0.0 0.0 0.0
0.0 0.0 0.0
0.0 0.0 0.0
0.0 0.0 0.0
0.0 0.0 0.0
0.0 0.0 0.0
0.0 0.0 0.0
0.0 0.0 0.0
0.0 0.0 0.0
0.0 0.0 0.0
0.0 0.0 0.0
0.0 0.0 0.0
0.0 0.0 0.0
0.0 0.0 0.0
0.0 0.0 0.0
0.0 0.0 0.0
0.0 0.0 0.0
0.0 0.0 0.0
0.0 0.0 0.0
0.0 0.0 0.0
0.0 0.0 0.0
0.0 0.0 0.0
0.0 0.0 0.0
0.0 0.0 0.0
0.0 0.0 0.0
0.0 0.0 0.0
0.0 0.0 0.0
0.0 0.0 0.0
0.0 0.0 0.0
0.0 0.0 0.0
0.0 0.0 0.0
0.0 0.0 0.0
0.0 0.0 0.0
0.0 0.0 0.0
0.0 0.0 0.0
0.0 0.0 0.0
0.0 0.0 0.0
0.0 0.0 0.0
0.0 0.0 0.0
0.0 0.0 0.0
0.0 0.0 0.0
0.0 0.0 0.0
0.0 0.0 0.0
0.0 0.0 0.0
0.0 0.0 0.0
0.0 0.0 0.0
0.0 0.0 0.0
0.0 0.0 0.0
0.0 0.0 0.0
0.0 0.0 0.0
0.0 0.0 0.0
0.0 0.0 0.0
0.0 0.0 0.0
0.0 0.0 0.0
0.0 0.0 0.0
0.0 0.0 0.0
0.0 0.0 0.0
0.0 0.0 0.0
0.0 0.0 0.0
0.0 0.0 0.0
0.0 0.0 0.0
0.0 0.0 0.0
0.0 0.0 0.0
0.0 0.0 0.0
0.0 0.0 0.0
0.0 0.0 0.0
0.0 0.0 0.0
0.0 0.0 0.0
0.0 0.0 0.0
0.0 0.0 0.0
0.0 0.0 0.0
0.0 0.0 0.0
0.0 0.0 0.0
0.0 0.0 0.0
0.0 0.0 0.0
0.0 0.0 0.0
0.0 0.0 0.0
0.0 0.0 0.0
0.0 0.0 0.0
0.0 0.0 0.0
0.0 0.0 0.0
0.0 0.0 0.0
0.0 0.0 0.0
0.0 0.0 0.0
0.0 0.0 0.0
0.0 0.0 0.0
0.0 0.0 0.0
0.0 0.0 0.0
0.0 0.0 0.0
0.0 0.0 0.0
0.0 0.0 0.0
0.0 0.0 0.0
0.0 0.0 0.0
0.0 0.0 0.0
0.0 0.0 0.0
0.0 0.0 0.0
0.0 0.0 0.0
0.0 0.0 0.0
0.0 0.0 0.0
0.0 0.0 0.0
0.0 0.0 0.0
0.0 0.0 0.0
0.0 0.0 0.0
0.0 0.0 0.0
0.0 0.0 0.0
0.0 0.0 0.0
0.0 0.0 0.0
0.0 0.0 0.0
0.0 0.0 0.0
0.0 0.0 0.0
0.0 0.0 0.0
0.0 0.0 0.0
0.0 0.0 0.0
0.0 0.0 0.0
0.0 0.0 0.0
0.0 0.0 0.0
0.0 0.0 0.0
0.0 0.0 0.0
0.0 0.0 0.0
0.0 0.0 0.0
0.0 0.0 0.0
0.0 0.0 0.0
0.0 0.0 0.0
0.0 0.0 0.0
0.0 0.0 0.0
0.0 0.0 0.0
0.0 0.0 0.0
0.0 0.0 0.0
0.0 0.0 0.0
0.0 0.0 0.0
0.0 0.0 0.0
0.0 0.0 0.0
0.0 0.0 0.0
0.0 0.0 0.0
0.0 0.0 0.0
0.0 0.0 0.0
0.0 0.0 0.0
0.0 0.0 0.0
0.0 0.0 0.0
0.0 0.0 0.0
0.0 0.0 0.0
0.0 0.0 0.0
0.0 0.0 0.0
0.0 0.0 0.0
0.0 0.0 0.0
0.0 0.0 0.0
0.0 0.0 0.0
0.0 0.0 0.0
0.0 0.0 0.0
0.0 0.0 0.0
0.0 0.0 0.0
0.0 0.0 0.0
0.0 0.0 0.0
0.0 0.0 0.0
0.0 0.0 0.0
0.0 0.0 0.0
0.0 0.0 0.0
0.0 0.0 0.0
0.0 0.0 0.0
0.0 0.0 0.0
0.0 0.0 0.0
0.0 0.0 0.0
0.0 0.0 0.0
0.0 0.0 0.0
0.0 0.0 0.0
0.0 0.0 0.0
0.0 0.0 0.0
0.0 0.0 0.0
0.0 0.0 0.0
0.0 0.0 0.0
0.0 0.0 0.0
0.0 0.0 0.0
0.0 0.0 0.0
0.0 0.0 0.0
0.0 0.0 0.0
0.0 0.0 0.0
0.0 0.0 0.0
0.0 0.0 0.0
0.0 0.0 0.0
0.0 0.0 0.0
0.0 0.0 0.0
0.0 0.0 0.0
0.0 0.0 0.0
0.0 0.0 0.0
0.0 0.0 0.0
0.0 0.0 0.0
0.0 0.0 0.0
0.0 0.0 0.0
0.0 0.0 0.0
0.0 0.0 0.0
0.0 0.0 0.0
0.0 0.0 0.0
0.0 0.0 0.0
0.0 0.0 0.0
0.0 0.0 0.0
0.0 0.0 0.0
0.0 0.0 0.0
0.0 0.0 0.0
0.0 0.0 0.0
0.0 0.0 0.0
0.0 0.0 0.0
0.0 0.0 0.0
0.0 0.0 0.0
0.0 0.0 0.0
0.0 0.0 0.0
0.0 0.0 0.0
0.0 0.0 0.0
0.0 0.0 0.0
0.0 0.0 0.0
0.0 0.0 0.0
0.0 0.0 0.0
0.0 0.0 0.0
0.0 0.0 0.0
0.0 0.0 0.0
0.0 0.0 0.0
0.0 0.0 0.0
0.0 0.0 0.0
0.0 0.0 0.0
0.0 0.0 0.0
0.0 0.0 0.0
0.0 0.0 0.0
0.0 0.0 0.0
0.0 0.0 0.0
0.0 0.0 0.0
0.0 0.0 0.0
0.0 0.0 0.0
0.0 0.0 0.0
0.0 0.0 0.0
0.0 0.0 0.0
0.0 0.0 0.0
0.0 0.0 0.0
0.0 0.0 0.0
0.0 0.0 0.0
0.0 0.0 0.0
0.0 0.0 0.0
0.0 0.0 0.0
0.0 0.0 0.0
0.0 0.0 0.0
0.0 0.0 0.0
0.0 0.0 0.0
0.0 0.0 0.0
0.0 0.0 0.0
0.0 0.0 0.0
0.0 0.0 0.0
0.0 0.0 0.0
0.0 0.0 0.0
0.0 0.0 0.0
0.0 0.0 0.0
0.0 0.0 0.0
0.0 0.0 0.0
0.0 0.0 0.0
0.0 0.0 0.0
0.0 0.0 0.0
0.0 0.0 0.0
0.0 0.0 0.0
0.0 0.0 0.0
0.0 0.0 0.0
0.0 0.0 0.0
0.0 0.0 0.0
0.0 0.0 0.0
0.0 0.0 0.0
0.0 0.0 0.0
0.0 0.0 0.0
0.0 0.0 0.0
0.0 0.0 0.0
0.0 0.0 0.0
0.0 0.0 0.0
0.0 0.0 0.0
0.0 0.0 0.0
0.0 0.0 0.0
0.0 0.0 0.0
0.0 0.0 0.0
0.0 0.0 0.0
0.0 0.0 0.0
0.0 0.0 0.0
0.0 0.0 0.0
0.0 0.0 0.0
0.0 0.0 0.0
0.0 0.0 0.0
0.0 0.0 0.0
0.0 0.0 0.0
0.0 0.0 0.0
0.0 0.0 0.0
0.0 0.0 0.0
0.0 0.0 0.0
0.0 0.0 0.0
0.0 0.0 0.0
0.0 0.0 0.0
0.0 0.0 0.0
0.0 0.0 0.0
0.0 0.0 0.0
0.0 0.0 0.0
0.0 0.0 0.0
0.0 0.0 0.0
0.0 0.0 0.0
0.0 0.0 0.0
0.0 0.0 0.0
0.0 0.0 0.0
0.0 0.0 0.0
0.0 0.0 0.0
0.0 0.0 0.0
0.0 0.0 0.0
0.0 0.0 0.0
0.0 0.0 0.0
0.0 0.0 0.0
0.0 0.0 0.0
0.0 0.0 0.0
0.0 0.0 0.0
0.0 0.0 0.0
0.0 0.0 0.0
0.0 0.0 0.0
0.0 0.0 0.0
0.0 0.0 0.0
0.0 0.0 0.0
0.0 0.0 0.0
0.0 0.0 0.0
0.0 0.0 0.0
0.0 0.0 0.0
0.0 0.0 0.0
0.0 0.0 0.0
0.0 0.0 0.0
0.0 0.0 0.0
0.0 0.0 0.0
0.0 0.0 0.0
1.51038038428 0.0 0.0
1.50882522154 0.0 0.0
1.5076548934 0.0 0.0
1.50411151858 0.0 0.0
1.50148256053 0.0 0.0
1.49646509661 0.0 0.0
1.49260945669 0.0 0.0
1.48726069076 0.0 0.0
1.48387971239 0.0 0.0
1.48004335838 0.0 0.0
1.47669559758 0.0 0.0
1.47302093804 0.0 0.0
1.4695814988 0.0 0.0
1.4622514851 0.0 0.0
1.45076312091 0.0 0.0
1.44022481809 0.0 0.0
1.42439890933 0.0 0.0
1.41179874808 0.0 0.0
1.3897405501 0.0 0.0
1.36560350853 0.0 0.0
1.34460636441 0.0 0.0
1.3242959339 0.0 0.0
1.30040839722 0.0 0.0
1.28694523411 0.0 0.0
1.27055753689 0.0 0.0
1.25709468855 0.0 0.0
1.24389687255 0.0 0.0
1.23208279856 0.0 0.0
1.2261368046 0.0 0.0
1.22198569804 0.0 0.0
1.21914096237 0.0 0.0
1.21914238747 0.0 0.0
1.22091294204 0.0 0.0
1.22358199074 0.0 0.0
1.22729072548 0.0 0.0
1.23381714742 0.0 0.0
1.23974106423 0.0 0.0
1.24606533053 0.0 0.0
1.25635743962 0.0 0.0
1.26185626181 0.0 0.0
1.27322166225 0.0 0.0
1.2799104648 0.0 0.0
1.2935068995 0.0 0.0
1.30691148767 0.0 0.0
1.31993656519 0.0 0.0
1.33267999332 0.0 0.0
1.35101509277 0.0 0.0
1.37286816256 0.0 0.0
1.38554446247 0.0 0.0
1.39960155157 0.0 0.0
1.42054846297 0.0 0.0
1.44546560422 0.0 0.0
1.46103960289 0.0 0.0
1.48889727167 0.0 0.0
1.52170576875 0.0 0.0
1.54174507327 0.0 0.0
1.5815326432 0.0 0.0
1.62260046964 0.0 0.0
1.65661366222 0.0 0.0
1.69495404025 0.0 0.0
1.73226431245 0.0 0.0
1.7805212193 0.0 0.0
1.83689834753 0.0 0.0
1.89618183277 0.0 0.0
1.94237273299 0.0 0.0
1.98067673583 0.0 0.0
2.03095139967 0.0 0.0
2.07764325336 0.0 0.0
2.1269631773 0.0 0.0
2.16166225588 0.0 0.0
2.21350817769 0.0 0.0
2.24744104375 0.0 0.0
2.30386295002 0.0 0.0
2.36288369138 0.0 0.0
2.41294714741 0.0 0.0
2.49522194076 0.0 0.0
2.56329082768 0.0 0.0
2.61492174849 0.0 0.0
2.69741342934 0.0 0.0
2.74529282377 0.0 0.0
2.7895261447 0.0 0.0
2.83714525131 0.0 0.0
2.85680504541 0.0 0.0
2.8845110424 0.0 0.0
2.89649077032 0.0 0.0
2.92271098458 0.0 0.0
2.9497287743 0.0 0.0
2.98616937342 0.0 0.0
3.02474128198 0.0 0.0
3.07821778345 0.0 0.0
3.12415625057 0.0 0.0
3.18823217626 0.0 0.0
3.21774150633 0.0 0.0
3.26179260855 0.0 0.0
3.28489876384 0.0 0.0
3.29637109884 0.0 0.0
3.2974908509 0.0 0.0
3.29352982553 0.0 0.0
3.2863270807 0.0 0.0
3.28411661131 0.0 0.0
3.287567329 0.0 0.0
3.29390049669 0.0 0.0
3.31534662286 0.0 0.0
3.33299481089 0.0 0.0
3.36998613272 0.0 0.0
3.40451088044 0.0 0.0
3.42865244796 0.0 0.0
3.43817032576 0.0 0.0
3.43966423023 0.0 0.0
3.43483435098 0.0 0.0
3.41316011659 0.0 0.0
3.3963595868 0.0 0.0
3.36972935698 0.0 0.0
3.34705736575 0.0 0.0
3.32250078747 0.0 0.0
3.31315133383 0.0 0.0
3.29737116297 0.0 0.0
3.29057048547 0.0 0.0
3.27595162705 0.0 0.0
3.25990804654 0.0 0.0
3.24814518528 0.0 0.0
3.21480408999 0.0 0.0
3.18808812603 0.0 0.0
3.15770446385 0.0 0.0
3.10772379312 0.0 0.0
3.07129316089 0.0 0.0
3.01905069098 0.0 0.0
2.96441414804 0.0 0.0
2.92649796079 0.0 0.0
2.86469572999 0.0 0.0
2.82388933335 0.0 0.0
2.76518539361 0.0 0.0
2.70753148268 0.0 0.0
2.64320172712 0.0 0.0
2.58095012725 0.0 0.0
2.54461999511 0.0 0.0
2.4802501741 0.0 0.0
2.4101898637 0.0 0.0
2.33772912157 0.0 0.0
2.28217497192 0.0 0.0
2.22140806048 0.0 0.0
2.16601889787 0.0 0.0
2.09905959991 0.0 0.0
2.02237817549 0.0 0.0
1.98025117739 0.0 0.0
1.91188953174 0.0 0.0
1.87202878089 0.0 0.0
1.80725618846 0.0 0.0
1.75201955731 0.0 0.0
1.69947629199 0.0 0.0
1.66448496167 0.0 0.0
1.62064896763 0.0 0.0
1.57605988903 0.0 0.0
1.53101040555 0.0 0.0
1.49953170786 0.0 0.0
1.4626291363 0.0 0.0
1.43896218816 0.0 0.0
1.40904306544 0.0 0.0
1.3882179758 0.0 0.0
1.36103567148 0.0 0.0
1.34818605498 0.0 0.0
1.3244594348 0.0 0.0
1.3079859699 0.0 0.0
1.29327477757 0.0 0.0
1.27460192877 0.0 0.0
1.2575281176 0.0 0.0
1.24700704012 0.0 0.0
1.23410655515 0.0 0.0
1.2217378928 0.0 0.0
1.21388054817 0.0 0.0
1.20386536951 0.0 0.0
1.19312430871 0.0 0.0
1.18618771753 0.0 0.0
1.17789017226 0.0 0.0
1.16886716884 0.0 0.0
1.16366813017 0.0 0.0
1.15791074976 0.0 0.0
1.15290843318 0.0 0.0
1.14824584909 0.0 0.0
1.14341107117 0.0 0.0
1.13921472041 0.0 0.0
1.13638418421 0.0 0.0
1.13275699229 0.0 0.0
1.13107161068 0.0 0.0
1.12821398738 0.0 0.0
1.12635103433 0.0 0.0
1.12471202669 0.0 0.0
1.1231332017 0.0 0.0
1.12226482445 0.0 0.0
1.12119454333 0.0 0.0
1.12004950937 0.0 0.0
1.1195388088 0.0 0.0
1.11878354488 0.0 0.0
1.11841730143 0.0 0.0
1.1180051742 0.0 0.0
1.11781882179 0.0 0.0
1.11782855421 0.0 0.0
1.11755733063 0.0 0.0
1.11746908536 0.0 0.0
1.49625 0.0 0.0
1.485 0.0 0.0
1.46625 0.0 0.0
1.44 0.0 0.0
1.40625 0.0 0.0
1.365 0.0 0.0
1.31625 0.0 0.0
1.26 0.0 0.0
1.19625 0.0 0.0
1.125 0.0 0.0
1.04625 0.0 0.0
0.960000000002 0.0 0.0
0.866250000002 0.0 0.0
0.765000000002 0.0 0.0
0.656250000001 0.0 0.0
0.540000000001 0.0 0.0
0.416250000001 0.0 0.0
0.285000000001 0.0 0.0
0.14625 0.0 0.0
1.11762338903 -1.07489606015e-05 0.0
1.11772041088 3.72217862891e-05 0.0
1.11785401922 1.78383648161e-05 0.0
1.11754221502 1.2515622948e-05 0.0
1.11744556431 1.98911153524e-05 0.0
1.11725777347 4.20382634866e-05 0.0
1.11745529158 1.92122918391e-05 0.0
1.11705000023 -2.38470623658e-05 0.0
1.11684803131 1.6817615429e-05 0.0
1.11731819262 2.56134877702e-06 0.0
1.11695032923 1.41558642045e-05 0.0
1.11694320873 1.538060638e-05 0.0
1.11715066254 0.000100175994131 0.0
1.11721356659 2.21849219441e-05 0.0
1.11574922651 4.37181186576e-05 0.0
1.11303920421 1.55793281695e-05 0.0
1.10770738052 0.000317984009836 0.0
1.09906913432 0.000585360096459 0.0
1.08474181575 -0.000836637502789 0.0
1.06376296801 0.00221858041916 0.0
1.0299991783 -0.00106168792013 0.0
0.98438383949 0.00297977019105 0.0
0.925693670164 0.00229806895294 0.0
0.85024792927 0.00277616184658 0.0
0.762449507046 0.00212597267794 0.0
0.664543734031 0.00170704803387 0.0
0.544644394145 0.00493334272733 0.0
0.398251153951 0.0060112246014 0.0
0.251400137601 0.00515809242353 0.0
0.106621533478 0.0100172461011 0.0
1.17187084084 0.115101121233 0.0
1.13069125169 -0.0420869195726 0.0
1.26870905895 -0.116972783641 0.0
1.27359045038 0.292558750894 0.0
1.12534912656 0.0474468888671 0.0
1.11114703486 0.00755071149767 0.0
1.43357658648 -0.25563259485 0.0
1.46673373992 0.370664115292 0.0
1.06984959573 0.133162626164 0.0
2.02899017157 -0.186842543725 0.0
1.79223517201 0.223496413117 0.0
1.08991981844 -0.0027914735072 0.0
1.2335060959 -0.109141703823 0.0
1.23379287339 0.172540651347 0.0
1.12330251394 0.0394999074551 0.0
0.492100030811 0.154017345736 0.0
0.794151774415 -0.0501140570897 0.0
1.06415957742 0.0806038542022 0.0
1.06879335418 0.0234995539622 0.0
1.35349944128 -0.186006822949 0.0
1.34628681113 0.378888937129 0.0
2.35593481528 0.0128194843848 0.0
2.18380752607 0.126055881075 0.0
0.875017786834 0.15913346182 0.0
2.2967707566 0.063941883099 0.0
1.70848217054 -0.38048670286 0.0
1.87106142177 0.294599179393 0.0
1.04217683588 -0.000883766273599 0.0
1.00175638357 0.0579265216475 0.0
2.1869930555 0.22833903356 0.0
2.08872919212 -0.249213424203 0.0
0.982614923389 0.00712807992424 0.0
1.11658484887 0.00127777016047 0.0
0.825665426203 -0.118762852667 0.0
2.96039529246 0.112722474963 0.0
2.76995710389 -0.201041143532 0.0
0.767689280141 0.0939681383169 0.0
2.38332689664 0.18898827894 0.0
2.2980050123 -0.394380367802 0.0
3.00514981537 0.0746675869787 0.0
0.980858906333 0.165627312047 0.0
1.02467140376 -0.161789457536 0.0
0.393974863263 0.0352106583056 0.0
1.15982388482 0.064539290361 0.0
1.04467461774 -0.355869370264 0.0
0.169860815468 0.166561158447 0.0
1.19056498353 -0.0806714023742 0.0
0.946655678431 -5.44571783026e-05 0.0
0.846780620436 0.13131047925 0.0
0.897951890402 -0.00719036855649 0.0
1.25783614006 0.085807695598 0.0
1.03539781569 0.159351207387 0.0
1.12518966733 0.0165826578094 0.0
1.12034287887 -0.199766331073 0.0
0.772257061476 0.235470971853 0.0
1.12494282086 -0.217467710667 0.0
0.403306168611 -0.00552871721785 0.0
1.07152712893 -0.194289088131 0.0
1.21313613879 -0.0364224019047 0.0
1.1789757841 0.0433845065768 0.0
1.36780470975 0.143462006224 0.0
0.830750969273 0.0105408202644 0.0
2.71061505407 0.00866238655879 0.0
2.84509548743 -0.0850698217712 0.0
1.27086533712 -0.059603299801 0.0
1.35049452421 -0.0847479644238 0.0
1.57123018268 0.210861567078 0.0
0.876319656792 -0.000358767987275 0.0
0.845203974518 0.0237389839754 0.0
0.770434519126 0.0531911925851 0.0
2.87456874413 -0.140210329669 0.0
3.18301837346 -0.121824774538 0.0
1.33175581457 0.0256106310161 0.0
1.28608099098 0.112082720885 0.0
2.68363942485 -0.350882601884 0.0
2.69000361941 0.0789494658515 0.0
1.81112695276 0.287223509437 0.0
1.45008287111 -0.126195439754 0.0
0.853737502765 0.06114133558 0.0
1.22964688786 -0.201735455404 0.0
0.6212289267 0.300463620598 0.0
3.14440980952 -0.070963489264 0.0
0.0949746432745 0.164735530621 0.0
0.840366376054 0.0222807271596 0.0
0.822093490706 -0.037538388886 0.0
0.822950233874 0.0984433755572 0.0
0.982236196839 -0.0073319930126 0.0
0.518398196362 -0.026378507162 0.0
1.15396514289 0.0293680075024 0.0
0.197043298972 0.0166683379161 0.0
0.00594253840865 -0.0214651945794 0.0
1.11901260076 0.00440317103447 0.0
0.55547887385 0.00673005848831 0.0
1.20572065165 0.0644676211947 0.0
0.633461284393 0.0536497248588 0.0
0.143156563913 0.0122760674049 0.0
0.0279918295874 0.0640493980043 0.0
0.676557499207 0.0402370912521 0.0
0.442350410886 0.153832799044 0.0
0.678541619964 0.0347478171167 0.0
0.256613738008 0.076427643441 0.0
1.211427434 0.14929155149 0.0
1.39946760036 -0.611852707504 0.0
1.11582429521 -0.00113357934855 0.0
1.42117248822 0.211739864438 0.0
1.9123295149 -0.534647908135 0.0
2.08949670952 0.26772621462 0.0
1.58906316742 -0.168930270026 0.0
0.764378026029 -0.00556143290313 0.0
0.591162532591 0.125284181894 0.0
0.742023933838 -0.00170293297583 0.0
1.10795132708 0.00141030748549 0.0
0.741920994806 0.00258201038619 0.0
0.389408022125 0.09694741933 0.0
0.61842990156 0.0145343299871 0.0
1.09428320111 0.00781047601049 0.0
1.1108460362 0.0201432365683 0.0
0.439212362817 0.0946740624731 0.0
1.17379185752 -0.0937899068091 0.0
0.973576599684 0.104345314309 0.0
1.22730839358 0.102834430781 0.0
1.14738973104 -0.162821420158 0.0
0.676514109419 0.0283180039242 0.0
1.38723965339 0.0254229870077 0.0
1.09152402093 0.211485884745 0.0
1.94554524596 -0.145886793896 0.0
1.10572059795 0.0278758275579 0.0
1.10612358673 0.102833408996 0.0
0.557741675544 -0.127463902443 0.0
1.10685337809 0.0670457957023 0.0
-0.228426851102 -0.032765698422 0.0
1.38719022309 0.400008734601 0.0
1.09385683456 0.0454107935275 0.0
1.40164459805 -0.202053944427 0.0
1.1773449426 -0.0108648127662 0.0
1.25015952325 0.227865702697 0.0
0.711101154594 0.0094682250683 0.0
1.25973560442 -0.0974733972941 0.0
1.0968793299 -0.0042365646229 0.0
1.18170277215 0.037446363511 0.0
0.26510807661 0.0446483357186 0.0
0.649346239399 -0.137372737886 0.0
1.11776550187 0.000617594118651 0.0
1.0173582935 -0.24397433353 0.0
0.37440197724 0.156085996231 0.0
1.03368571062 -0.0713826400514 0.0
0.667168496358 0.000379226406681 0.0
1.29281069311 -0.160710839706 0.0
1.28798537841 0.338876008042 0.0
1.46602045193 -0.377360719795 0.0
1.09908685454 0.160707541582 0.0
0.359024036908 -0.0165609470435 0.0
-0.147108733397 -0.236173087851 0.0
2.68858247447 -0.362227265085 0.0
0.421361111038 -0.105366600478 0.0
1.17127742345 -0.136623188752 0.0
0.970990915018 0.278283748458 0.0
0.549083646323 -0.0430721693228 0.0
0.739297856891 -0.236078230752 0.0
1.29410318096 0.133000530842 0.0
1.87493361263 -0.187013643627 0.0
2.42380694343 0.18641619182 0.0
2.66789918828 0.171917939804 0.0
2.15851365492 -0.138165114131 0.0
0.622033099188 0.145102953258 0.0
1.23785299943 -0.0664529861733 0.0
0.449734046155 -0.238843074364 0.0
-0.284459453138 0.0527932142198 0.0
0.25094654633 0.0850757675993 0.0
0.608326810203 0.0796519416617 0.0
0.323225702778 0.114477053042 0.0
0.896808376734 -0.092803660494 0.0
0.593790442571 -0.0135894412222 0.0
1.11460231202 0.00333395507947 0.0
-0.169902893443 0.032033439763 0.0
0.624132150605 0.0516459356437 0.0
1.01628466017 0.133869385408 0.0
1.13443601114 0.152764754738 0.0
1.11357604167 -7.30693238994e-05 0.0
1.42510475108 0.229840855691 0.0
1.11073217994 0.0320359216047 0.0
0.36391163019 0.0489028483345 0.0
1.29849794632 -0.0876044241958 0.0
0.619163680537 -0.0152397679333 0.0
1.83692372873 -0.313229709609 0.0
1.13351198358 0.0287340684746 0.0
0.541990721614 0.0529818266907 0.0
0.579071768838 -0.0105117236292 0.0
1.08040948868 -0.120915988762 0.0
1.29288944822 0.278074659501 0.0
0.0668439208484 0.196081065301 0.0
0.934900696739 0.23024017114 0.0
1.11705287091 9.67719020671e-05 0.0
1.11847099603 0.010289484422 0.0
0.645249312836 0.0300241253123 0.0
2.05202283673 0.0971792721869 0.0
1.55103211932 0.0362341344194 0.0
1.15551746653 -0.0831611633336 0.0
1.1161441279 0.0322950580864 0.0
0.88618416677 -0.0166691094456 0.0
1.0740213716 -0.00127378730886 0.0
1.32612963285 0.0673584949191 0.0
0.584798648471 -0.00294992182622 0.0
2.12765543454 -0.619578846266 0.0
1.68373167119 0.148727029197 0.0
0.538552385017 -0.00502400808404 0.0
0.550366889384 0.0124577122781 0.0
1.9665144665 0.184914218727 0.0
2.48206993961 0.0561702045174 0.0
0.463581509538 0.0261441381517 0.0
1.21622393951 0.106973207738 0.0
1.24652641221 -0.0285600064579 0.0
1.13966425877 0.0795454304072 0.0